 vasp.5.3.6 23Jan15 (build Feb 02 2016 19:35:31) gamma-only                     
  
 executed on           IFC91_ompi date 2016.02.07  00:12:59
 running on    1 total cores
 distrk:  each k-point on    1 cores,    1 groups
 distr:  one band on NCORES_PER_BAND=   1 cores,    1 groups


--------------------------------------------------------------------------------------------------------


 INCAR:
 POTCAR:    PAW_PBE C_GW_new 19Mar2012            
 POTCAR:   PAW_PBE N_GW_new 19Mar2012             
 POTCAR:    PAW_PBE C_GW_new 19Mar2012            
   VRHFIN =C: s2p2                                                              
   LEXCH  = PE                                                                  
   EATOM  =   147.1560 eV,   10.8157 Ry                                         
                                                                                
   TITEL  = PAW_PBE C_GW_new 19Mar2012                                          
   LULTRA =        F    use ultrasoft PP ?                                      
   IUNSCR =        1    unscreen: 0-lin 1-nonlin 2-no                           
   RPACOR =    0.800    partial core radius                                     
   POMASS =   12.011; ZVAL   =    4.000    mass and valenz                      
   RCORE  =    1.600    outmost cutoff radius                                   
   RWIGS  =    1.600; RWIGS  =    0.847    wigner-seitz radius (au A)           
   ENMAX  =  413.992; ENMIN  =  310.494 eV                                      
   ICORE  =        3    local potential                                         
   LCOR   =        T    correct aug charges                                     
   LPAW   =        T    paw PP                                                  
   EAUG   = 1213.930                                                            
   DEXC   =    0.000                                                            
   RMAX   =    1.630    core radius for proj-oper                               
   RAUG   =    1.300    factor for augmentation sphere                          
   RDEP   =    1.601    radius for radial grids                                 
   RDEPT  =    1.200    core radius for aug-charge                              
                                                                                
   Atomic configuration                                                         
    5 entries                                                                   
     n  l   j            E        occ.                                          
     1  0  0.50      -273.3789   2.0000                                         
     2  0  0.50       -13.7508   2.0000                                         
     2  1  0.50        -5.2854   2.0000                                         
     3  2  1.50        -5.4423   0.0000                                         
     4  3  2.50        -5.4423   0.0000                                         
   Description                                                                  
     l       E           TYP  RCUT    TYP  RCUT                                 
     0    -13.7508457     23  1.200                                             
     0     -7.5219285     23  1.200                                             
     0    272.1165200     23  1.300                                             
     1     -5.2854382     23  1.500                                             
     1    108.8466080     23  1.500                                             
     2     27.2116520     23  1.500                                             
     2    190.4815640     23  1.600                                             
     3     54.4233040     23  1.400                                             
  local pseudopotential read in
  partial core-charges read in
  partial kinetic energy density read in
  kinetic energy density of atom read in
  atomic valenz-charges read in
  non local Contribution for L=           0  read in
    real space projection operators read in
  non local Contribution for L=           0  read in
    real space projection operators read in
  non local Contribution for L=           0  read in
    real space projection operators read in
  non local Contribution for L=           1  read in
    real space projection operators read in
  non local Contribution for L=           1  read in
    real space projection operators read in
  non local Contribution for L=           2  read in
    real space projection operators read in
  non local Contribution for L=           2  read in
    real space projection operators read in
    PAW grid and wavefunctions read in
 
   number of l-projection  operators is LMAX  =           7
   number of lm-projection operators is LMMAX =          19
 
 POTCAR:   PAW_PBE N_GW_new 19Mar2012             
   VRHFIN =N: s2p3                                                              
   LEXCH  = PE                                                                  
   EATOM  =   264.5486 eV,   19.4438 Ry                                         
                                                                                
   TITEL  = PAW_PBE N_GW_new 19Mar2012                                          
   LULTRA =        F    use ultrasoft PP ?                                      
   IUNSCR =        1    unscreen: 0-lin 1-nonlin 2-no                           
   RPACOR =    0.800    partial core radius                                     
   POMASS =   14.001; ZVAL   =    5.000    mass and valenz                      
   RCORE  =    1.600    outmost cutoff radius                                   
   RWIGS  =    1.600; RWIGS  =    0.847    wigner-seitz radius (au A)           
   ENMAX  =  420.902; ENMIN  =  315.677 eV                                      
   ICORE  =        3    local potential                                         
   LCOR   =        T    correct aug charges                                     
   LPAW   =        T    paw PP                                                  
   EAUG   = 1173.595                                                            
   DEXC   =    0.000                                                            
   RMAX   =    1.638    core radius for proj-oper                               
   RAUG   =    1.300    factor for augmentation sphere                          
   RDEP   =    1.609    radius for radial grids                                 
   RDEPT  =    1.200    core radius for aug-charge                              
                                                                                
   Atomic configuration                                                         
    5 entries                                                                   
     n  l   j            E        occ.                                          
     1  0  0.50      -384.7179   2.0000                                         
     2  0  0.50       -18.5828   2.0000                                         
     2  1  0.50        -7.0898   3.0000                                         
     3  2  1.50        -8.1635   0.0000                                         
     4  3  2.50        -8.1635   0.0000                                         
   Description                                                                  
     l       E           TYP  RCUT    TYP  RCUT                                 
     0    -18.5828120     23  1.150                                             
     0    -16.4356426     23  1.150                                             
     0    258.5106940     23  1.300                                             
     1     -7.0897854     23  1.500                                             
     1     -3.1993695     23  1.500                                             
     1    136.0582600     23  1.500                                             
     2     27.2116520     23  1.500                                             
     2    190.4815640     23  1.600                                             
     3     54.4233040     23  1.400                                             
  local pseudopotential read in
  partial core-charges read in
  partial kinetic energy density read in
  kinetic energy density of atom read in
  atomic valenz-charges read in
  non local Contribution for L=           0  read in
    real space projection operators read in
  non local Contribution for L=           0  read in
    real space projection operators read in
  non local Contribution for L=           0  read in
    real space projection operators read in
  non local Contribution for L=           1  read in
    real space projection operators read in
  non local Contribution for L=           1  read in
    real space projection operators read in
  non local Contribution for L=           1  read in
    real space projection operators read in
  non local Contribution for L=           2  read in
    real space projection operators read in
  non local Contribution for L=           2  read in
    real space projection operators read in
    PAW grid and wavefunctions read in
 
   number of l-projection  operators is LMAX  =           8
   number of lm-projection operators is LMMAX =          22
 

 ----------------------------------------------------------------------------- 
|                                                                             |
|  ADVICE TO THIS USER RUNNING 'VASP/VAMP'   (HEAR YOUR MASTER'S VOICE ...):  |
|                                                                             |
|      You have a (more or less) 'large supercell' and for larger cells       |
|      it might be more efficient to use real space projection opertators     |
|      So try LREAL= Auto  in the INCAR   file.                               |
|      Mind: At the moment your POTCAR file does not contain real space       |
|       projectors, and has to be modified,  BUT if you                       |
|      want to do an extremely  accurate calculation you might also keep the  |
|      reciprocal projection scheme          (i.e. LREAL=.FALSE.)             |
|                                                                             |
 ----------------------------------------------------------------------------- 

  PAW_PBE C_GW_new 19Mar2012            :
 energy of atom  1       EATOM= -147.1560
 kinetic energy error for atom=    0.0288 (will be added to EATOM!!)
 PAW_PBE N_GW_new 19Mar2012             :
 energy of atom  2       EATOM= -264.5486
 kinetic energy error for atom=    0.0732 (will be added to EATOM!!)
 
 
 POSCAR: C                                       
  positions in direct lattice
  velocities in cartesian coordinates
 exchange correlation table for  LEXCH =        8
   RHO(1)=    0.500       N(1)  =     2000
   RHO(2)=  100.500       N(2)  =     4000
 


--------------------------------------------------------------------------------------------------------


 ion  position               nearest neighbor table
   1  0.083  0.167  0.031-   6 1.54  14 1.54 100 1.54   4 1.55
   2  0.168  0.084  0.469-   5 1.54   3 1.55  29 1.55  37 1.56
   3  0.167  0.084  0.281-   4 1.54  36 1.54  28 1.54   2 1.55
   4  0.084  0.167  0.219-  11 1.54   3 1.54  97 1.54   1 1.55
   5  0.084  0.167  0.531-   2 1.54  10 1.54  96 1.54   8 1.55
   6  0.167  0.083  0.969-   1 1.54  25 1.54  33 1.55   7 1.55
   7  0.167  0.083  0.781-   8 1.54  32 1.54  40 1.54   6 1.55
   8  0.083  0.167  0.719- 101 1.54   7 1.54  15 1.54   5 1.55
   9  0.083  0.417  0.031-  14 1.54  22 1.54 108 1.54  12 1.55
  10  0.167  0.333  0.469-  45 1.53  13 1.53   5 1.54  11 1.55
  11  0.167  0.333  0.281-   4 1.54  44 1.54  12 1.54  10 1.55
  12  0.083  0.417  0.219- 105 1.54  19 1.54  11 1.54   9 1.55
  13  0.084  0.416  0.530-  10 1.53  18 1.55 104 1.55  16 1.55
  14  0.167  0.333  0.969-   9 1.54   1 1.54  41 1.54  15 1.55
  15  0.166  0.333  0.781-  48 1.54  16 1.54   8 1.54  14 1.55
  16  0.083  0.416  0.718-  15 1.54 109 1.54  23 1.54  13 1.55
  17  0.083  0.667  0.031-  30 1.54  22 1.54 116 1.54  20 1.55
  18  0.167  0.583  0.469-  53 1.54  21 1.54  13 1.55  19 1.55
  19  0.167  0.583  0.281-  20 1.54  52 1.54  12 1.54  18 1.55
  20  0.083  0.666  0.219-  19 1.54 113 1.54  27 1.54  17 1.55
  21  0.084  0.668  0.531-  26 1.53  18 1.54  24 1.55 112 1.56
  22  0.167  0.583  0.969-  17 1.54   9 1.54  49 1.54  23 1.55
  23  0.166  0.583  0.781-  56 1.54  24 1.54  16 1.54  22 1.55
  24  0.083  0.667  0.718-  31 1.54 117 1.54  23 1.54  21 1.55
  25  0.083  0.917  0.031-  30 1.54   6 1.54 124 1.54  28 1.55
  26  0.167  0.833  0.469-  21 1.53  61 1.53  29 1.54  27 1.55
  27  0.167  0.833  0.281-  28 1.54  20 1.54  60 1.54  26 1.55
  28  0.083  0.917  0.219-  27 1.54   3 1.54 121 1.54  25 1.55
  29  0.083  0.917  0.531-  26 1.54  32 1.55   2 1.55 120 1.55
  30  0.167  0.833  0.969-  17 1.54  57 1.54  25 1.54  31 1.55
  31  0.167  0.833  0.781-  32 1.54  24 1.54  64 1.54  30 1.55
  32  0.083  0.917  0.719-  31 1.54   7 1.54 125 1.54  29 1.55
  33  0.334  0.167  0.032-  46 1.54   6 1.55  38 1.55  36 1.55
  34  0.419  0.085  0.469-  69 1.49  37 1.55  35 1.55  61 1.56
  35  0.418  0.084  0.281-  36 1.54  60 1.54  68 1.54  34 1.55
  36  0.334  0.167  0.220-  35 1.54   3 1.54  43 1.55  33 1.55
  37  0.336  0.169  0.532-  40 1.54  34 1.55  42 1.55   2 1.56
  38  0.417  0.083  0.969-  65 1.54  57 1.54  33 1.55  39 1.55
  39  0.417  0.084  0.781-  40 1.54  64 1.54  72 1.55  38 1.55
  40  0.334  0.167  0.719-  39 1.54  47 1.54  37 1.54   7 1.54
  41  0.334  0.417  0.031-  46 1.54  54 1.54  14 1.54  44 1.55
  42  0.418  0.337  0.472- 127 1.47  45 1.53  37 1.55  43 1.56
  43  0.419  0.334  0.283-  75 1.54  36 1.55  44 1.55  42 1.56
  44  0.334  0.417  0.220-  51 1.54  11 1.54  41 1.55  43 1.55
  45  0.332  0.417  0.531-  10 1.53  42 1.53  50 1.55  48 1.55
  46  0.417  0.334  0.969-  73 1.54  41 1.54  33 1.54  47 1.55
  47  0.416  0.334  0.781-  40 1.54  48 1.54  78 1.54  46 1.55
  48  0.333  0.417  0.719-  15 1.54  47 1.54  55 1.54  45 1.55
  49  0.333  0.667  0.031-  54 1.54  62 1.54  22 1.54  52 1.55
  50  0.416  0.584  0.469-  53 1.54  45 1.55  83 1.55  51 1.55
  51  0.417  0.583  0.281-  44 1.54  82 1.54  52 1.54  50 1.55
  52  0.333  0.667  0.219-  59 1.54  19 1.54  51 1.54  49 1.55
  53  0.333  0.667  0.531-  50 1.54  58 1.54  18 1.54  56 1.55
  54  0.417  0.583  0.969-  49 1.54  41 1.54  79 1.54  55 1.55
  55  0.416  0.584  0.781-  56 1.54  48 1.54  86 1.54  54 1.55
  56  0.333  0.667  0.719-  63 1.54  23 1.54  55 1.54  53 1.55
  57  0.333  0.917  0.031-  30 1.54  62 1.54  38 1.54  60 1.55
  58  0.417  0.833  0.469-  53 1.54  61 1.54  91 1.55  59 1.55
  59  0.417  0.833  0.281-  60 1.54  52 1.54  90 1.54  58 1.55
  60  0.334  0.917  0.219-  59 1.54  35 1.54  27 1.54  57 1.55
  61  0.332  0.916  0.531-  26 1.53  58 1.54  64 1.55  34 1.56
  62  0.417  0.833  0.969-  57 1.54  87 1.54  49 1.54  63 1.55
  63  0.417  0.834  0.781-  56 1.54  64 1.54  94 1.54  62 1.55
  64  0.333  0.917  0.718-  31 1.54  39 1.54  63 1.54  61 1.55
  65  0.583  0.166  0.029-  70 1.53  38 1.54  76 1.55  68 1.57
  66  0.666  0.083  0.469-  69 1.49  99 1.55  91 1.55  67 1.55
  67  0.667  0.083  0.281-  98 1.54  90 1.54  68 1.54  66 1.55
  68  0.585  0.169  0.219-  74 1.50  67 1.54  35 1.54  65 1.57
  69  0.578  0.153  0.534-  66 1.49  34 1.49  72 1.50
  70  0.667  0.083  0.968-  65 1.53  87 1.54  95 1.54  71 1.55
  71  0.667  0.084  0.780- 102 1.54  94 1.54  72 1.55  70 1.55
  72  0.583  0.166  0.715-  69 1.50  71 1.55  39 1.55  77 1.55
  73  0.583  0.417  0.031-  84 1.54  46 1.54  76 1.55  75 1.58
  74  0.668  0.332  0.274-  68 1.50 106 1.50  75 1.51
  75  0.585  0.415  0.222-  74 1.51  81 1.54  43 1.54  73 1.58
  76  0.666  0.334  0.966-  73 1.55  65 1.55 103 1.55  77 1.56
  77  0.666  0.334  0.777-  72 1.55 110 1.55  76 1.56  78 1.56
  78  0.582  0.418  0.716- 127 1.46  85 1.54  47 1.54  77 1.56
  79  0.583  0.666  0.031-  84 1.54  54 1.54  92 1.54  82 1.55
  80  0.663  0.582  0.472- 127 1.47  83 1.53 115 1.55  81 1.56
  81  0.666  0.581  0.283-  75 1.54 114 1.55  82 1.55  80 1.56
  82  0.583  0.666  0.220-  51 1.54  89 1.54  79 1.55  81 1.55
  83  0.583  0.668  0.531-  88 1.53  80 1.53  50 1.55  86 1.55
  84  0.666  0.583  0.969-  73 1.54  79 1.54 111 1.54  85 1.55
  85  0.666  0.584  0.781- 118 1.54  86 1.54  78 1.54  84 1.55
  86  0.583  0.667  0.719-  93 1.54  85 1.54  55 1.54  83 1.55
  87  0.583  0.917  0.031-  92 1.54  62 1.54  70 1.54  90 1.55
  88  0.667  0.833  0.469-  83 1.53  91 1.53 123 1.54  89 1.55
  89  0.667  0.833  0.281- 122 1.54  82 1.54  90 1.54  88 1.55
  90  0.583  0.917  0.219-  67 1.54  59 1.54  89 1.54  87 1.55
  91  0.584  0.916  0.530-  88 1.53  58 1.55  66 1.55  94 1.55
  92  0.667  0.833  0.969-  87 1.54 119 1.54  79 1.54  93 1.55
  93  0.667  0.834  0.781-  86 1.54  94 1.54 126 1.54  92 1.55
  94  0.584  0.917  0.718-  93 1.54  71 1.54  63 1.54  91 1.55
  95  0.833  0.167  0.031- 100 1.54 108 1.54  70 1.54  98 1.55
  96  0.917  0.083  0.469-  99 1.54 123 1.54   5 1.54  97 1.55
  97  0.917  0.083  0.281- 122 1.54   4 1.54  98 1.54  96 1.55
  98  0.833  0.167  0.219- 105 1.54  67 1.54  97 1.54  95 1.55
  99  0.833  0.167  0.531-  96 1.54 104 1.55  66 1.55 102 1.55
 100  0.917  0.083  0.969-  95 1.54 119 1.54   1 1.54 101 1.55
 101  0.917  0.083  0.781- 126 1.54   8 1.54 102 1.54 100 1.55
 102  0.833  0.167  0.718- 109 1.54  71 1.54 101 1.54  99 1.55
 103  0.834  0.417  0.029- 108 1.53 116 1.54  76 1.55 106 1.57
 104  0.917  0.334  0.469- 107 1.49  99 1.55  13 1.55 105 1.55
 105  0.917  0.333  0.281-  98 1.54  12 1.54 106 1.54 104 1.55
 106  0.831  0.415  0.219-  74 1.50 105 1.54 113 1.54 103 1.57
 107  0.847  0.422  0.534- 104 1.49 112 1.49 110 1.50
 108  0.917  0.333  0.968- 103 1.53   9 1.54  95 1.54 109 1.55
 109  0.916  0.333  0.780- 102 1.54  16 1.54 110 1.55 108 1.55
 110  0.834  0.417  0.715- 107 1.50 109 1.55 117 1.55  77 1.55
 111  0.833  0.666  0.032-  84 1.54 124 1.55 116 1.55 114 1.55
 112  0.915  0.581  0.469- 107 1.49 115 1.55 113 1.55  21 1.56
 113  0.916  0.582  0.281- 114 1.54  20 1.54 106 1.54 112 1.55
 114  0.833  0.666  0.220- 113 1.54 121 1.54  81 1.55 111 1.55
 115  0.831  0.664  0.532- 118 1.54 112 1.55  80 1.55 120 1.56
 116  0.917  0.583  0.969- 103 1.54  17 1.54 111 1.55 117 1.55
 117  0.916  0.583  0.781- 118 1.54  24 1.54 110 1.55 116 1.55
 118  0.833  0.666  0.719- 117 1.54  85 1.54 115 1.54 125 1.54
 119  0.833  0.917  0.031- 124 1.54  92 1.54 100 1.54 122 1.55
 120  0.916  0.832  0.469- 123 1.54 121 1.55  29 1.55 115 1.56
 121  0.916  0.833  0.281- 122 1.54 114 1.54  28 1.54 120 1.55
 122  0.833  0.916  0.219-  89 1.54 121 1.54  97 1.54 119 1.55
 123  0.833  0.916  0.531- 120 1.54  88 1.54  96 1.54 126 1.55
 124  0.917  0.833  0.969- 119 1.54  25 1.54 111 1.55 125 1.55
 125  0.917  0.833  0.781- 126 1.54  32 1.54 118 1.54 124 1.55
 126  0.833  0.917  0.719- 101 1.54 125 1.54  93 1.54 123 1.55
 127  0.574  0.426  0.539-  78 1.46  80 1.47  42 1.47
 
  LATTYP: Found a hexagonal cell.
 ALAT       =    10.0799999235
 C/A-ratio  =     0.8174603010
  
  Lattice vectors:
  
 A1 = (  10.0799999236,   0.0000000000,   0.0000000000)
 A2 = (  -5.0399999620,   8.7295360040,   0.0000000000)
 A3 = (   0.0000000000,   0.0000000000,   8.2399997712)


Analysis of symmetry for initial positions (statically):
=====================================================================
 Subroutine PRICEL returns:
 Original cell was already a primitive cell.
 

 Routine SETGRP: Setting up the symmetry group for a 
 hexagonal supercell.


 Subroutine GETGRP returns: Found  2 space group operations
 (whereof  2 operations were pure point group operations)
 out of a pool of 24 trial point group operations.


The static configuration has the point symmetry C_1h.


Analysis of symmetry for dynamics (positions and initial velocities):
=====================================================================
 Subroutine PRICEL returns:
 Original cell was already a primitive cell.
 

 Routine SETGRP: Setting up the symmetry group for a 
 hexagonal supercell.


 Subroutine GETGRP returns: Found  2 space group operations
 (whereof  2 operations were pure point group operations)
 out of a pool of 24 trial point group operations.


The dynamic configuration has the point symmetry C_1h.


Analysis of magnetic symmetry:
=====================================================================
 Subroutine PRICEL returns:
 Original cell was already a primitive cell.
 

 Subroutine MAGSYM returns: Found  2 space group operations
 (whereof  2 operations were pure point group operations)
 out of a pool of  2 trial space group operations
 (whereof  2 operations were pure point group operations)
 and found also     1 'primitive' translations


The magnetic configuration has the point symmetry C_1h.
 
 
 KPOINTS: Automatically generated mesh            

Automatic generation of k-mesh.
Space group operators:
 irot       det(A)        alpha          n_x          n_y          n_z        tau_x        tau_y        tau_z
    1     1.000000     0.000001     1.000000     0.000000     0.000000     0.000000     0.000000     0.000000
    2    -1.000000   179.999999    -0.500000    -0.866025     0.000000     0.000000     0.000000     0.000000
 
 Subroutine IBZKPT returns following result:
 ===========================================
 
 Found      1 irreducible k-points:
 
 Following reciprocal coordinates:
            Coordinates               Weight
  0.000000  0.000000  0.000000      1.000000
 
 Following cartesian coordinates:
            Coordinates               Weight
  0.000000  0.000000  0.000000      1.000000
 
 
 Subroutine IBZKPT_HF returns following result:
 ==============================================
 
 Found      1 k-points in 1st BZ
 the following      1 k-points will be used (e.g. in the exchange kernel)
 Following reciprocal coordinates:   # in IRBZ
  0.000000  0.000000  0.000000    1.00000000   1 t-inv F


--------------------------------------------------------------------------------------------------------




 Dimension of arrays:
   k-points           NKPTS =      1   k-points in BZ     NKDIM =      1   number of bands    NBANDS=    288
   number of dos      NEDOS =    301   number of ions     NIONS =    127
   non local maximal  LDIM  =      8   non local SUM 2l+1 LMDIM =     22
   total plane-waves  NPLWV = 100000
   max r-space proj   IRMAX =      1   max aug-charges    IRDMAX=   1612
   dimension x,y,z NGX =    50 NGY =   50 NGZ =   40
   dimension x,y,z NGXF=   100 NGYF=  100 NGZF=   80
   support grid    NGXF=   100 NGYF=  100 NGZF=   80
   ions per type =             126   1
 NGX,Y,Z   is equivalent  to a cutoff of   8.25,  8.25,  8.07 a.u.
 NGXF,Y,Z  is equivalent  to a cutoff of  16.49, 16.49, 16.14 a.u.


 I would recommend the setting:
   dimension x,y,z NGX =    49 NGY =   49 NGZ =   40
 SYSTEM =  unknown system                          
 POSCAR =  C                                       

 Startparameter for this run:
   NWRITE =      2    write-flag & timer
   PREC   = normal    normal or accurate (medium, high low for compatibility)
   ISTART =      0    job   : 0-new  1-cont  2-samecut
   ICHARG =      2    charge: 1-file 2-atom 10-const
   ISPIN  =      2    spin polarized calculation?
   LNONCOLLINEAR =      F non collinear calculations
   LSORBIT =      F    spin-orbit coupling
   INIWAV =      1    electr: 0-lowe 1-rand  2-diag
   LASPH  =      F    aspherical Exc in radial PAW
   METAGGA=      F    non-selfconsistent MetaGGA calc.

 Electronic Relaxation 1
   ENCUT  =  400.0 eV  29.40 Ry    5.42 a.u.  16.44 16.44 13.44*2*pi/ulx,y,z
   ENINI  =  400.0     initial cutoff
   ENAUG  = 1213.9 eV  augmentation charge cutoff
   NELM   =     60;   NELMIN=  2; NELMDL= -5     # of ELM steps 
   EDIFF  = 0.1E-03   stopping-criterion for ELM
   LREAL  =      F    real-space projection
   NLSPLINE    = F    spline interpolate recip. space projectors
   LCOMPAT=      F    compatible to vasp.4.4
   GGA_COMPAT  = T    GGA compatible to vasp.4.4-vasp.4.6
   LMAXPAW     = -100 max onsite density
   LMAXMIX     =    2 max onsite mixed and CHGCAR
   VOSKOWN=      0    Vosko Wilk Nusair interpolation
   ROPT   =    0.00000   0.00000
 Ionic relaxation
   EDIFFG = 0.1E-02   stopping-criterion for IOM
   NSW    =      0    number of steps for IOM
   NBLOCK =      1;   KBLOCK =      1    inner block; outer block 
   IBRION =     -1    ionic relax: 0-MD 1-quasi-New 2-CG
   NFREE  =      0    steps in history (QN), initial steepest desc. (CG)
   ISIF   =      0    stress and relaxation
   IWAVPR =     10    prediction:  0-non 1-charg 2-wave 3-comb
   ISYM   =      3    0-nonsym 1-usesym 2-fastsym
   LCORR  =      T    Harris-Foulkes like correction to forces

   POTIM  = 0.5000    time-step for ionic-motion
   TEIN   =    0.0    initial temperature
   TEBEG  =    0.0;   TEEND  =   0.0 temperature during run
   SMASS  =  -3.00    Nose mass-parameter (am)
   estimated Nose-frequenzy (Omega)   =  0.10E-29 period in steps =****** mass=  -0.232E-26a.u.
   SCALEE = 1.0000    scale energy and forces
   NPACO  =    256;   APACO  = 16.0  distance and # of slots for P.C.
   PSTRESS=    0.0 pullay stress

  Mass of Ions in am
   POMASS =  12.01 14.00
  Ionic Valenz
   ZVAL   =   4.00  5.00
  Atomic Wigner-Seitz radii
   RWIGS  =  -1.00 -1.00
  virtual crystal weights 
   VCA    =   1.00  1.00
   NELECT =     510.0000    total number of electrons
   NUPDOWN=      -1.0000    fix difference up-down

 DOS related values:
   EMIN   =  10.00;   EMAX   =-10.00  energy-range for DOS
   EFERMI =   0.00
   ISMEAR =    -2;   SIGMA  =   0.00  broadening in eV -4-tet -1-fermi 0-gaus

 Electronic relaxation 2 (details)
   IALGO  =     38    algorithm
   LDIAG  =      T    sub-space diagonalisation (order eigenvalues)
   LSUBROT=      F    optimize rotation matrix (better conditioning)
   TURBO    =      0    0=normal 1=particle mesh
   IRESTART =      0    0=no restart 2=restart with 2 vectors
   NREBOOT  =      0    no. of reboots
   NMIN     =      0    reboot dimension
   EREF     =   0.00    reference energy to select bands
   IMIX   =      1    mixing-type and parameters
     AMIX     =   0.40;   BMIX     =  1.00
     AMIX_MAG =   1.60;   BMIX_MAG =  1.00
     AMIN     =   0.10
     WC   =   100.;   INIMIX=   1;  MIXPRE=   1;  MAXMIX= -45

 Intra band minimization:
   WEIMIN = 0.0000     energy-eigenvalue tresh-hold
   EBREAK =  0.87E-07  absolut break condition
   DEPER  =   0.30     relativ break condition  

   TIME   =   0.40     timestep for ELM

  volume/ion in A,a.u.               =       5.71        38.53
  Fermi-wavevector in a.u.,A,eV,Ry     =   1.455924  2.751297 28.840454  2.119714
  Thomas-Fermi vector in A             =   2.572902
 
 Write flags
   LWAVE  =      T    write WAVECAR
   LCHARG =      T    write CHGCAR
   LVTOT  =      F    write LOCPOT, total local potential
   LVHAR  =      F    write LOCPOT, Hartree potential only
   LELF   =      F    write electronic localiz. function (ELF)
   LORBIT =      0    0 simple, 1 ext, 2 COOP (PROOUT)


 Dipole corrections
   LMONO  =      F    monopole corrections only (constant potential shift)
   LDIPOL =      F    correct potential (dipole corrections)
   IDIPOL =      0    1-x, 2-y, 3-z, 4-all directions 
   EPSILON=  1.0000000 bulk dielectric constant

 Exchange correlation treatment:
   GGA     =    --    GGA type
   LEXCH   =     8    internal setting for exchange type
   VOSKOWN=      0    Vosko Wilk Nusair interpolation
   EXXOEP  =     0    0=HF, 1=EXX-LHF (local Hartree Fock) 2=EXX OEP
   LHFCALC =     T    Hartree Fock is set to
   LSYMGRAD=     F    symmetrize gradient (conserves proper symmetry)
   PRECFOCK=normal    Normal, Fast or Accurate (Low or Medium for compatibility)
   LRHFCALC=     F    long range Hartree Fock
   LRSCOR  =     F    long range correlation only (use DFT for short range part)
   LTHOMAS =     F    Thomas Fermi screening in HF
   LMODELHF=     F    short range full HF, long range fraction AEXX
   ENCUT4O =  -1.0   cutoff for four orbital integrals eV
   LMAXFOCK=     4    L truncation for augmentation on plane wave grid
   LMAXFOCKAE=  -1    L truncation for all-electron charge restoration on plane wave grid
   NMAXFOCKAE=   1    number of basis functions for all-electron charge restoration
   LFOCKAEDFT=     F  apply the AE augmentation even for DFT
   NKREDX  =     1    reduce k-point grid by
   NKREDY  =     1    reduce k-point grid by
   NKREDZ  =     1    reduce k-point grid by
   SHIFTRED=     F    shift reduced grid of Gamma
   HFKIDENT=     F    idential grid for each k-point
   ODDONLY =     F    use only odd q-grid points
   EVENONLY=     F    use only even q-grid points
   HFALPHA =   -1.0000 decay constant for conv. correction
   MCALPHA =    0.0000 extent of test-charge in conv. correction in multipole expansion
   AEXX    =    0.0000 exact exchange contribution
   HFSCREEN=    0.0000 screening length (either q_TF or 0.3 A-1)
   HFSCREENC=   0.0000 screening length for correlation (either q_TF or 0.3 A-1)
   HFRCUT  =    0.0000 spherical cutoff for potential kernel
   ALDAX   =    1.0000 LDA exchange part
   AGGAX   =    1.0000 GGA exchange part
   ALDAC   =    1.0000 LDA correlation
   AGGAC   =    1.0000 GGA correlation
   NBANDSGWLOW=     1    first orbital included in HF term
   ENCUTFOCK=  -1.0 apply spherical cutoff to Coloumb kernel
 Linear response parameters
   LEPSILON=     F    determine dielectric tensor
   LRPA    =     F    only Hartree local field effects (RPA)
   LNABLA  =     F    use nabla operator in PAW spheres
   LVEL    =     F    velocity operator in full k-point grid
   LINTERFAST=   F  fast interpolation
   KINTER  =     0    interpolate to denser k-point grid
   CSHIFT  =0.1000    complex shift for real part using Kramers Kronig
   OMEGAMAX=  -1.0    maximum frequency
   DEG_THRESHOLD= 0.2000000E-02 threshold for treating states as degnerate
   RTIME   =    0.100 relaxation time in fs

 Orbital magnetization related:
   ORBITALMAG=     F  switch on orbital magnetization
   LCHIMAG   =     F  perturbation theory with respect to B field
   DQ        =  0.001000  dq finite difference perturbation B field



--------------------------------------------------------------------------------------------------------


 Static calculation
 charge density and potential will be updated during run
 spin polarized calculation
 Variant of blocked Davidson
 Davidson routine will perform the subspace rotation
 perform sub-space diagonalisation
    after iterative eigenvector-optimisation
 Kerker-like  mixing scheme
 using additional bands           33
 reciprocal scheme for non local part
 use partial core corrections
 calculate Harris-corrections to forces 
   (improved forces if not selfconsistent)
 use gradient corrections 
 use of overlap-Matrix (Vanderbilt PP)
 partial occupancies read from INCAR or WAVECAR (fixed during run)


--------------------------------------------------------------------------------------------------------


  energy-cutoff  :      400.00
  volume of cell :      725.07
      direct lattice vectors                 reciprocal lattice vectors
    10.079999924  0.000000000  0.000000000     0.099206350  0.057276813  0.000000000
    -5.039999962  8.729536004  0.000000000     0.000000000  0.114553626  0.000000000
     0.000000000  0.000000000  8.239999771     0.000000000  0.000000000  0.121359227

  length of vectors
    10.079999924 10.079999924  8.239999771     0.114553626  0.114553626  0.121359227


 
 k-points in units of 2pi/SCALE and weight: Automatically generated mesh            
   0.00000000  0.00000000  0.00000000       1.000
 
 k-points in reciprocal lattice and weights: Automatically generated mesh            
   0.00000000  0.00000000  0.00000000       1.000
 
 position of ions in fractional coordinates (direct lattice) 
   0.08341067  0.16661851  0.03119790
   0.16781453  0.08424055  0.46919651
   0.16720078  0.08356277  0.28138102
   0.08356312  0.16659712  0.21913923
   0.08365926  0.16672658  0.53104550
   0.16695748  0.08346116  0.96929412
   0.16690104  0.08340609  0.78110588
   0.08343744  0.16661644  0.71905935
   0.08329967  0.41664676  0.03084759
   0.16662737  0.33335828  0.46875762
   0.16695280  0.33337061  0.28094636
   0.08315747  0.41650685  0.21873402
   0.08422410  0.41609908  0.53036296
   0.16671993  0.33340153  0.96921132
   0.16645194  0.33340971  0.78121258
   0.08318445  0.41637171  0.71843676
   0.08321963  0.66655696  0.03091307
   0.16651257  0.58330532  0.46861463
   0.16657157  0.58327820  0.28075353
   0.08284551  0.66627306  0.21889942
   0.08372808  0.66753063  0.53052859
   0.16661285  0.58331075  0.96865520
   0.16643624  0.58328538  0.78061954
   0.08316243  0.66682693  0.71842269
   0.08335345  0.91664655  0.03125282
   0.16667319  0.83332679  0.46865337
   0.16672023  0.83327975  0.28087965
   0.08340611  0.91659390  0.21929481
   0.08347385  0.91652616  0.53112375
   0.16670840  0.83329158  0.96898490
   0.16670302  0.83329696  0.78090513
   0.08338336  0.91661665  0.71904854
   0.33387365  0.16700315  0.03167806
   0.41923488  0.08494515  0.46885721
   0.41790296  0.08403590  0.28122855
   0.33428896  0.16707674  0.22027413
   0.33601667  0.16855018  0.53182078
   0.41703537  0.08344739  0.96866839
   0.41696251  0.08356823  0.78063694
   0.33385162  0.16694216  0.71913478
   0.33353345  0.41672295  0.03146055
   0.41843121  0.33728912  0.47217204
   0.41864340  0.33419517  0.28327338
   0.33406770  0.41675174  0.21959573
   0.33150787  0.41680244  0.53106165
   0.41694650  0.33369281  0.96921718
   0.41599908  0.33354768  0.78127611
   0.33254513  0.41673863  0.71908993
   0.33327842  0.66672159  0.03086653
   0.41610428  0.58389571  0.46895166
   0.41651603  0.58348396  0.28113279
   0.33323348  0.66676652  0.21866307
   0.33304701  0.66695299  0.53074138
   0.41660920  0.58339078  0.96913491
   0.41645071  0.58354928  0.78113326
   0.33314371  0.66685630  0.71878109
   0.33344305  0.91678038  0.03091307
   0.41669466  0.83348741  0.46861463
   0.41672178  0.83342842  0.28075353
   0.33372695  0.91715449  0.21889942
   0.33246938  0.91627193  0.53052859
   0.41668924  0.83338714  0.96865520
   0.41671460  0.83356375  0.78061954
   0.33317308  0.91683757  0.71842269
   0.58329931  0.16611793  0.02939515
   0.66623813  0.08309752  0.46884306
   0.66667609  0.08340297  0.28106923
   0.58497259  0.16856355  0.21940130
   0.57787147  0.15305877  0.53429805
   0.66664396  0.08336785  0.96830103
   0.66692410  0.08353950  0.78039695
   0.58323010  0.16597199  0.71524719
   0.58321034  0.41678967  0.03086849
   0.66796067  0.33203931  0.27397192
   0.58511093  0.41488908  0.22225090
   0.66646053  0.33353945  0.96594156
   0.66622824  0.33377174  0.77680151
   0.58154698  0.41845303  0.71562139
   0.58327706  0.66646655  0.03146055
   0.66271087  0.58156878  0.47217204
   0.66580481  0.58135658  0.28327338
   0.58324826  0.66593230  0.21959573
   0.58319757  0.66849213  0.53106165
   0.66630718  0.58305349  0.96921718
   0.66645230  0.58400090  0.78127611
   0.58326137  0.66745488  0.71908993
   0.58335324  0.91670034  0.03084759
   0.66664170  0.83337261  0.46875762
   0.66662937  0.83304719  0.28094636
   0.58349316  0.91684253  0.21873402
   0.58390093  0.91577591  0.53036296
   0.66659846  0.83328005  0.96921132
   0.66659028  0.83354804  0.78121258
   0.58362830  0.91681556  0.71843676
   0.83329456  0.16670545  0.03102969
   0.91678224  0.08321774  0.46906730
   0.91678885  0.08321113  0.28110681
   0.83337254  0.16662747  0.21923698
   0.83333377  0.16666623  0.53068189
   0.91666673  0.08333325  0.96899904
   0.91671476  0.08328523  0.78092797
   0.83339320  0.16660681  0.71840918
   0.83388208  0.41670070  0.02939515
   0.91690246  0.33376185  0.46884306
   0.91659701  0.33332390  0.28106923
   0.83143646  0.41502742  0.21940130
   0.84694123  0.42212853  0.53429805
   0.91663213  0.33335602  0.96830103
   0.91646048  0.33307589  0.78039695
   0.83402802  0.41676991  0.71524719
   0.83299686  0.66612636  0.03167806
   0.91505484  0.58076510  0.46885721
   0.91596409  0.58209702  0.28122855
   0.83292326  0.66571105  0.22027413
   0.83144983  0.66398334  0.53182078
   0.91655259  0.58296462  0.96866839
   0.91643176  0.58303748  0.78063694
   0.83305785  0.66614839  0.71913478
   0.83338150  0.91658934  0.03119790
   0.91575943  0.83218546  0.46919651
   0.91643722  0.83279921  0.28138102
   0.83340289  0.91643689  0.21913923
   0.83327343  0.91634074  0.53104550
   0.91653883  0.83304251  0.96929412
   0.91659390  0.83309895  0.78110588
   0.83338356  0.91656257  0.71905935
   0.57350710  0.42649291  0.53932221
 
 position of ions in cartesian coordinates  (Angst):
   0.00102226  1.45450224  0.25707065
   1.26699804  0.73538093  3.86617915
   1.26422749  0.72946417  2.31857955
   0.00266675  1.45431553  1.80570718
   0.00298341  1.45544569  4.37581480
   1.26228714  0.72857718  7.98698334
   1.26199575  0.72809644  6.43631227
   0.00130254  1.45448424  5.92504891
  -1.26023902  3.63713292  0.25418411
  -0.00052184  2.91006313  3.86256268
   0.00269629  2.91017078  2.31499796
  -1.26096718  3.63591154  1.80236823
  -1.24816046  3.63235187  4.37019064
   0.00019324  2.91044065  7.98630105
  -0.00254935  2.91051205  6.43719145
  -1.26001413  3.63473182  5.91991876
  -2.52059320  5.81873297  0.25472366
  -1.26141207  5.09198480  3.86138447
  -1.26068070  5.09174806  2.31340906
  -2.52293340  5.81625464  1.80373115
  -2.52037530  5.82723263  4.37155548
  -1.26042869  5.09203219  7.98171861
  -1.26208106  5.09181075  6.43230483
  -2.52253036  5.82108967  5.91980281
  -3.77969581  8.00189910  0.25752326
  -2.51990127  7.27455626  3.86170366
  -2.51918997  7.27414559  2.31444827
  -3.77889965  8.00143944  1.80698916
  -3.77787542  8.00084810  4.37645960
  -2.51936887  7.27424888  7.98443533
  -2.51945018  7.27429582  6.43465810
  -3.77924360  8.00163802  5.92495983
   2.52375048  1.45786003  0.26102719
   3.79776403  0.74153173  3.86338329
   3.78892093  0.73359439  2.31732317
   2.52756588  1.45850246  1.81505877
   2.53755508  1.47136485  4.38220308
   3.78314165  0.72845700  7.98182733
   3.78179819  0.72951187  6.43244818
   2.52383581  1.45732756  5.92567045
   1.26173355  3.63779796  0.25923495
   2.51784939  2.94437750  3.89069753
   2.53558179  2.91736881  2.33417257
   1.26697365  3.63804935  1.80946877
   1.24091507  3.63849188  4.37594786
   2.52100891  2.91298339  7.98634933
   2.51219040  2.91171650  6.43771496
   1.25169220  3.63793490  5.92530087
  -0.00083035  5.82017011  0.25434017
   1.25149672  5.09713861  3.86416157
   1.25772237  5.09354423  2.31653415
  -0.00150976  5.82056237  1.80178364
  -0.00432918  5.82219017  4.37330887
   1.25913122  5.09273083  7.98567140
   1.25673479  5.09411442  6.43653786
  -0.00286716  5.82134607  5.92275601
  -1.25946717  8.00306733  0.25472366
  -0.00049434  7.27595837  3.86138447
   0.00007636  7.27544336  2.31340906
  -1.25849098  8.00633317  1.80373115
  -1.26671914  7.99862879  4.37155548
  -0.00004369  7.27508304  7.98171861
  -0.00067810  7.27662476  6.43230483
  -1.26247671  8.00356661  5.91980281
   5.04242264  1.45013244  0.24221604
   6.29686880  0.72540281  3.86326667
   6.29974390  0.72806927  2.31601041
   5.04696334  1.47148158  1.80786666
   5.05352819  1.33613208  4.40261583
   6.29959710  0.72776266  7.97880030
   6.30155579  0.72926109  6.43047072
   5.04246059  1.44885842  5.89363669
   3.77814029  3.63838040  0.25435632
   5.05956544  2.89854911  2.25752853
   3.80687712  3.62178918  1.83134735
   5.03688328  2.91164467  7.95935821
   5.03337109  2.91367243  6.40084428
   3.75299026  3.65290078  5.89672013
   2.52044133  5.81794378  0.25923495
   3.74901886  5.07682559  3.89069753
   3.78127528  5.07497322  2.33417257
   2.52284366  5.81328003  1.80946877
   2.50943113  5.83562616  4.37594786
   3.77778673  5.08978642  7.98634933
   3.77447463  5.09805692  6.43771496
   2.51530206  5.82657137  5.92530087
   1.26003099  8.00236862  0.25418411
   2.51955036  7.27495624  3.86256268
   2.52106621  7.27211543  2.31499796
   1.26072465  8.00360991  1.80236823
   1.27021078  7.99429880  4.37019064
   2.51958097  7.27414820  7.98630105
   2.51814783  7.27648765  6.43719145
   1.26222284  8.00337441  5.91991876
   7.55941363  1.45526122  0.25568462
   8.82174749  0.72645230  3.86511442
   8.82184745  0.72639458  2.31632003
   7.56059270  1.45458048  1.80651263
   7.56000656  1.45491889  4.37281862
   8.82000100  0.72746063  7.98455185
   8.82072718  0.72704137  6.43484628
   7.56090504  1.45440016  5.91969151
   6.30535979  3.63760375  0.24221604
   7.56021703  2.91358612  3.86326667
   7.55934535  2.90976298  2.31601041
   6.28914124  3.62299681  1.80786666
   6.40963977  3.68498624  4.40261583
   7.55953748  2.91004342  7.97880030
   7.55921915  2.90759793  6.43047072
   6.30648209  3.63820789  5.89363669
   5.03933142  5.81497402  0.26102719
   6.29669659  5.06980988  3.86338329
   6.29914897  5.08143690  2.31732317
   5.04068276  5.81134858  1.81505877
   5.03453820  5.79626648  4.38220308
   6.30070844  5.08901060  7.98182733
   6.29912317  5.08964663  6.43244818
   5.03983522  5.81516636  5.92567045
   3.78087523  8.00139965  0.25707065
   5.03664033  7.26459292  3.86617915
   5.04037913  7.26995066  2.31857955
   3.78185918  8.00006883  1.80570718
   3.78103876  7.99922952  4.37581480
   5.04017711  7.27207456  7.98698334
   5.04044775  7.27256728  6.43631227
   3.78103097  8.00116591  5.92504891
   3.63142727  3.72308520  4.44401490
 


--------------------------------------------------------------------------------------------------------


 use seriel FFT for wavefunctions x direction half grid
 k-point  1 :   0.0000 0.0000 0.0000  plane waves:    6590

 maximum and minimum number of plane-waves per node :      6590     6590

 maximum number of plane-waves:      6590
 maximum index in each direction: 
   IXMAX=   16   IYMAX=   14   IZMAX=   13
   IXMIN=    0   IYMIN=  -16   IZMIN=  -13

 WARNING: aliasing errors must be expected set NGX to  66 to avoid them
 WARNING: aliasing errors must be expected set NGY to  62 to avoid them
 WARNING: aliasing errors must be expected set NGZ to  54 to avoid them
 aliasing errors are usually negligible using standard VASP settings
 and one can safely disregard these warnings

 serial   3D FFT for wavefunctions
 parallel 3D FFT for charge:
    minimum data exchange during FFTs selected (reduces bandwidth)

 
 Radii for the augmentation spheres in the non-local exchange
 for species   1 augmentation radius   0.820 (default was   0.656)
       energy cutoff for augmentation   1600.0
 for species   2 augmentation radius   0.834 (default was   0.667)
       energy cutoff for augmentation   1600.0
  SETUP_FOCK is finished

 total amount of memory used by VASP on root node   230919. kBytes
========================================================================

   base      :      30000. kBytes
   nonl-proj :      15710. kBytes
   fftplans  :      27920. kBytes
   grid      :      73360. kBytes
   one-center:       2950. kBytes
   HF        :        193. kBytes
   nonlr-proj:       8920. kBytes
   wavefun   :      71866. kBytes
 
     INWAV:  cpu time    0.0000: real time    0.0000
 initial charge density was supplied:
 charge density of overlapping atoms calculated
 number of electron     509.0000000 magnetization     127.0000000
 keeping initial charge density in first step


--------------------------------------------------------------------------------------------------------


 Maximum index for augmentation-charges         1364 (set IRDMAX)


--------------------------------------------------------------------------------------------------------


 FEWALD executed in parallel
    FEWALD:  cpu time    0.0840: real time    0.0821


----------------------------------------- Iteration    1(   1)  ---------------------------------------


    POTLOK:  cpu time    0.8760: real time    0.8769
    SETDIJ:  cpu time    1.2840: real time    1.2860
     EDDAV:  cpu time   41.7360: real time   41.7464
       DOS:  cpu time    0.0000: real time    0.0001
    --------------------------------------------
      LOOP:  cpu time   43.8960: real time   43.9107

 eigenvalue-minimisations  :  1152
 total energy-change (2. order) : 0.4847692E+04  (-0.2664645E+05)
 number of electron     509.0000000 magnetization     127.0000000
 augmentation part      509.0000000 magnetization     127.0000000

 Free energy of the ion-electron system (eV)
  ---------------------------------------------------
  alpha Z        PSCENC =       343.12918115
  Ewald energy   TEWEN  =    -21995.57842394
  -Hartree energ DENC   =     -1260.84472751
  -exchange      EXHF   =         0.00000000
  -V(xc)+E(xc)   XCENC  =      1005.11753373
  PAW double counting   =     14624.74813730   -13934.22916061
  entropy T*S    EENTRO =         0.00000000
  eigenvalues    EBANDS =      7262.84388388
  atomic energy  EATOM  =     18802.50563071
  Solvation  Ediel_sol  =         0.00000000
  ---------------------------------------------------
  free energy    TOTEN  =      4847.69205471 eV

  energy without entropy =     4847.69205471  energy(sigma->0) =     4847.69205471
  exchange ACFDT corr.  =         0.00000000  see jH, gK, PRB 81, 115126


--------------------------------------------------------------------------------------------------------




----------------------------------------- Iteration    1(   2)  ---------------------------------------


     EDDAV:  cpu time   56.5800: real time   56.6056
       DOS:  cpu time    0.0000: real time    0.0001
    --------------------------------------------
      LOOP:  cpu time   56.5800: real time   56.6084

 eigenvalue-minimisations  :  1688
 total energy-change (2. order) :-0.5340546E+04  (-0.5096463E+04)
 number of electron     509.0000000 magnetization     127.0000000
 augmentation part      509.0000000 magnetization     127.0000000

 Free energy of the ion-electron system (eV)
  ---------------------------------------------------
  alpha Z        PSCENC =       343.12918115
  Ewald energy   TEWEN  =    -21995.57842394
  -Hartree energ DENC   =     -1260.84472751
  -exchange      EXHF   =         0.00000000
  -V(xc)+E(xc)   XCENC  =      1005.11753373
  PAW double counting   =     14624.74813730   -13934.22916061
  entropy T*S    EENTRO =         0.00000000
  eigenvalues    EBANDS =      1922.29821306
  atomic energy  EATOM  =     18802.50563071
  Solvation  Ediel_sol  =         0.00000000
  ---------------------------------------------------
  free energy    TOTEN  =      -492.85361611 eV

  energy without entropy =     -492.85361611  energy(sigma->0) =     -492.85361611
  exchange ACFDT corr.  =         0.00000000  see jH, gK, PRB 81, 115126


--------------------------------------------------------------------------------------------------------




----------------------------------------- Iteration    1(   3)  ---------------------------------------


     EDDAV:  cpu time   47.9520: real time   47.9720
       DOS:  cpu time    0.0000: real time    0.0001
    --------------------------------------------
      LOOP:  cpu time   47.9520: real time   47.9746

 eigenvalue-minimisations  :  1376
 total energy-change (2. order) :-0.5949705E+03  (-0.5855128E+03)
 number of electron     509.0000000 magnetization     127.0000000
 augmentation part      509.0000000 magnetization     127.0000000

 Free energy of the ion-electron system (eV)
  ---------------------------------------------------
  alpha Z        PSCENC =       343.12918115
  Ewald energy   TEWEN  =    -21995.57842394
  -Hartree energ DENC   =     -1260.84472751
  -exchange      EXHF   =         0.00000000
  -V(xc)+E(xc)   XCENC  =      1005.11753373
  PAW double counting   =     14624.74813730   -13934.22916061
  entropy T*S    EENTRO =         0.00000000
  eigenvalues    EBANDS =      1327.32770345
  atomic energy  EATOM  =     18802.50563071
  Solvation  Ediel_sol  =         0.00000000
  ---------------------------------------------------
  free energy    TOTEN  =     -1087.82412572 eV

  energy without entropy =    -1087.82412572  energy(sigma->0) =    -1087.82412572
  exchange ACFDT corr.  =         0.00000000  see jH, gK, PRB 81, 115126


--------------------------------------------------------------------------------------------------------




----------------------------------------- Iteration    1(   4)  ---------------------------------------


     EDDAV:  cpu time   59.8640: real time   59.8887
       DOS:  cpu time    0.0000: real time    0.0001
    --------------------------------------------
      LOOP:  cpu time   59.8680: real time   59.8919

 eigenvalue-minimisations  :  1480
 total energy-change (2. order) :-0.2154658E+02  (-0.2147970E+02)
 number of electron     509.0000000 magnetization     127.0000000
 augmentation part      509.0000000 magnetization     127.0000000

 Free energy of the ion-electron system (eV)
  ---------------------------------------------------
  alpha Z        PSCENC =       343.12918115
  Ewald energy   TEWEN  =    -21995.57842394
  -Hartree energ DENC   =     -1260.84472751
  -exchange      EXHF   =         0.00000000
  -V(xc)+E(xc)   XCENC  =      1005.11753373
  PAW double counting   =     14624.74813730   -13934.22916061
  entropy T*S    EENTRO =         0.00000000
  eigenvalues    EBANDS =      1305.78112047
  atomic energy  EATOM  =     18802.50563071
  Solvation  Ediel_sol  =         0.00000000
  ---------------------------------------------------
  free energy    TOTEN  =     -1109.37070870 eV

  energy without entropy =    -1109.37070870  energy(sigma->0) =    -1109.37070870
  exchange ACFDT corr.  =         0.00000000  see jH, gK, PRB 81, 115126


--------------------------------------------------------------------------------------------------------




----------------------------------------- Iteration    1(   5)  ---------------------------------------


     EDDAV:  cpu time   62.2600: real time   62.2854
       DOS:  cpu time    0.0000: real time    0.0001
    CHARGE:  cpu time    1.3720: real time    1.3722
    MIXING:  cpu time    0.0200: real time    0.0187
    --------------------------------------------
      LOOP:  cpu time   63.6520: real time   63.6786

 eigenvalue-minimisations  :  1520
 total energy-change (2. order) :-0.5664667E+00  (-0.5648147E+00)
 number of electron     509.3999664 magnetization     -72.9999987
 augmentation part        7.3299634 magnetization     -75.0039114

 Free energy of the ion-electron system (eV)
  ---------------------------------------------------
  alpha Z        PSCENC =       343.12918115
  Ewald energy   TEWEN  =    -21995.57842394
  -Hartree energ DENC   =     -1260.84472751
  -exchange      EXHF   =         0.00000000
  -V(xc)+E(xc)   XCENC  =      1005.11753373
  PAW double counting   =     14624.74813730   -13934.22916061
  entropy T*S    EENTRO =         0.00000000
  eigenvalues    EBANDS =      1305.21465377
  atomic energy  EATOM  =     18802.50563071
  Solvation  Ediel_sol  =         0.00000000
  ---------------------------------------------------
  free energy    TOTEN  =     -1109.93717540 eV

  energy without entropy =    -1109.93717540  energy(sigma->0) =    -1109.93717540
  exchange ACFDT corr.  =         0.00000000  see jH, gK, PRB 81, 115126


--------------------------------------------------------------------------------------------------------




----------------------------------------- Iteration    1(   6)  ---------------------------------------


    POTLOK:  cpu time    1.0000: real time    1.0024
    SETDIJ:  cpu time    1.3920: real time    1.3907
     EDDAV:  cpu time   54.7640: real time   54.7842
       DOS:  cpu time    0.0000: real time    0.0001
    CHARGE:  cpu time    1.3840: real time    1.3866
    MIXING:  cpu time    0.0200: real time    0.0183
    --------------------------------------------
      LOOP:  cpu time   58.5600: real time   58.5855

 eigenvalue-minimisations  :  1288
 total energy-change (2. order) :-0.1570878E+01  (-0.2765816E+01)
 number of electron     509.6399476 magnetization      46.9999981
 augmentation part        7.0107908 magnetization      45.3116669

 Free energy of the ion-electron system (eV)
  ---------------------------------------------------
  alpha Z        PSCENC =       343.12918115
  Ewald energy   TEWEN  =    -21995.57842394
  -Hartree energ DENC   =     -1505.13540323
  -exchange      EXHF   =         0.00000000
  -V(xc)+E(xc)   XCENC  =      1014.52890063
  PAW double counting   =     26948.64806179   -26267.02662877
  entropy T*S    EENTRO =         0.00000000
  eigenvalues    EBANDS =      1547.42062841
  atomic energy  EATOM  =     18802.50563071
  Solvation  Ediel_sol  =         0.00000000
  ---------------------------------------------------
  free energy    TOTEN  =     -1111.50805325 eV

  energy without entropy =    -1111.50805325  energy(sigma->0) =    -1111.50805325
  exchange ACFDT corr.  =         0.00000000  see jH, gK, PRB 81, 115126


--------------------------------------------------------------------------------------------------------




----------------------------------------- Iteration    1(   7)  ---------------------------------------


    POTLOK:  cpu time    1.0080: real time    1.0098
    SETDIJ:  cpu time    1.4040: real time    1.4046
     EDDAV:  cpu time   55.0040: real time   55.0257
       DOS:  cpu time    0.0000: real time    0.0001
    CHARGE:  cpu time    1.3760: real time    1.3761
    MIXING:  cpu time    0.0200: real time    0.0190
    --------------------------------------------
      LOOP:  cpu time   58.8120: real time   58.8376

 eigenvalue-minimisations  :  1304
 total energy-change (2. order) :-0.3349771E+01  (-0.1551059E+01)
 number of electron     509.7839369 magnetization     -24.9999970
 augmentation part        6.8998232 magnetization     -26.9488182

 Free energy of the ion-electron system (eV)
  ---------------------------------------------------
  alpha Z        PSCENC =       343.12918115
  Ewald energy   TEWEN  =    -21995.57842394
  -Hartree energ DENC   =     -1649.89156833
  -exchange      EXHF   =         0.00000000
  -V(xc)+E(xc)   XCENC  =      1024.86267118
  PAW double counting   =     36148.75647473   -35471.77345247
  entropy T*S    EENTRO =         0.00000000
  eigenvalues    EBANDS =      1683.13166320
  atomic energy  EATOM  =     18802.50563071
  Solvation  Ediel_sol  =         0.00000000
  ---------------------------------------------------
  free energy    TOTEN  =     -1114.85782377 eV

  energy without entropy =    -1114.85782377  energy(sigma->0) =    -1114.85782377
  exchange ACFDT corr.  =         0.00000000  see jH, gK, PRB 81, 115126


--------------------------------------------------------------------------------------------------------




----------------------------------------- Iteration    1(   8)  ---------------------------------------


    POTLOK:  cpu time    1.0160: real time    1.0150
    SETDIJ:  cpu time    1.3760: real time    1.3791
     EDDAV:  cpu time   52.8320: real time   52.8515
       DOS:  cpu time    0.0000: real time    0.0001
    CHARGE:  cpu time    1.3480: real time    1.3475
    MIXING:  cpu time    0.0160: real time    0.0183
    --------------------------------------------
      LOOP:  cpu time   56.5880: real time   56.6147

 eigenvalue-minimisations  :  1232
 total energy-change (2. order) :-0.2254886E+01  (-0.5803645E+00)
 number of electron     509.8703309 magnetization      18.1999981
 augmentation part        6.8440674 magnetization      16.3909628

 Free energy of the ion-electron system (eV)
  ---------------------------------------------------
  alpha Z        PSCENC =       343.12918115
  Ewald energy   TEWEN  =    -21995.57842394
  -Hartree energ DENC   =     -1730.38830870
  -exchange      EXHF   =         0.00000000
  -V(xc)+E(xc)   XCENC  =      1031.12648810
  PAW double counting   =     42297.44719504   -41623.05889096
  entropy T*S    EENTRO =         0.00000000
  eigenvalues    EBANDS =      1757.70441844
  atomic energy  EATOM  =     18802.50563071
  Solvation  Ediel_sol  =         0.00000000
  ---------------------------------------------------
  free energy    TOTEN  =     -1117.11271016 eV

  energy without entropy =    -1117.11271016  energy(sigma->0) =    -1117.11271016
  exchange ACFDT corr.  =         0.00000000  see jH, gK, PRB 81, 115126


--------------------------------------------------------------------------------------------------------




----------------------------------------- Iteration    1(   9)  ---------------------------------------


    POTLOK:  cpu time    0.9960: real time    1.0000
    SETDIJ:  cpu time    1.3920: real time    1.3897
     EDDAV:  cpu time   52.8600: real time   52.8815
       DOS:  cpu time    0.0000: real time    0.0001
    CHARGE:  cpu time    1.3920: real time    1.3921
    MIXING:  cpu time    0.0200: real time    0.0188
    --------------------------------------------
      LOOP:  cpu time   56.6640: real time   56.6842

 eigenvalue-minimisations  :  1248
 total energy-change (2. order) :-0.1140629E+01  (-0.2013247E+00)
 number of electron     509.9221674 magnetization      -7.7199978
 augmentation part        6.8265252 magnetization      -9.6145443

 Free energy of the ion-electron system (eV)
  ---------------------------------------------------
  alpha Z        PSCENC =       343.12918115
  Ewald energy   TEWEN  =    -21995.57842394
  -Hartree energ DENC   =     -1774.06680311
  -exchange      EXHF   =         0.00000000
  -V(xc)+E(xc)   XCENC  =      1035.53815027
  PAW double counting   =     46200.97854979   -45528.01918048
  entropy T*S    EENTRO =         0.00000000
  eigenvalues    EBANDS =      1797.25955631
  atomic energy  EATOM  =     18802.50563071
  Solvation  Ediel_sol  =         0.00000000
  ---------------------------------------------------
  free energy    TOTEN  =     -1118.25333929 eV

  energy without entropy =    -1118.25333929  energy(sigma->0) =    -1118.25333929
  exchange ACFDT corr.  =         0.00000000  see jH, gK, PRB 81, 115126


--------------------------------------------------------------------------------------------------------




----------------------------------------- Iteration    1(  10)  ---------------------------------------


    POTLOK:  cpu time    1.0080: real time    1.0073
    SETDIJ:  cpu time    1.4360: real time    1.4374
     EDDAV:  cpu time   52.5760: real time   52.5969
       DOS:  cpu time    0.0000: real time    0.0001
    CHARGE:  cpu time    1.4000: real time    1.4013
    MIXING:  cpu time    0.0200: real time    0.0187
    --------------------------------------------
      LOOP:  cpu time   56.4400: real time   56.4650

 eigenvalue-minimisations  :  1240
 total energy-change (2. order) :-0.4886218E+00  (-0.6977714E-01)
 number of electron     509.9532695 magnetization       7.8319990
 augmentation part        6.8228182 magnetization       5.9846580

 Free energy of the ion-electron system (eV)
  ---------------------------------------------------
  alpha Z        PSCENC =       343.12918115
  Ewald energy   TEWEN  =    -21995.57842394
  -Hartree energ DENC   =     -1798.28501419
  -exchange      EXHF   =         0.00000000
  -V(xc)+E(xc)   XCENC  =      1037.94783278
  PAW double counting   =     48622.45840176   -47950.33466134
  entropy T*S    EENTRO =         0.00000000
  eigenvalues    EBANDS =      1819.41509199
  atomic energy  EATOM  =     18802.50563071
  Solvation  Ediel_sol  =         0.00000000
  ---------------------------------------------------
  free energy    TOTEN  =     -1118.74196109 eV

  energy without entropy =    -1118.74196109  energy(sigma->0) =    -1118.74196109
  exchange ACFDT corr.  =         0.00000000  see jH, gK, PRB 81, 115126


--------------------------------------------------------------------------------------------------------




----------------------------------------- Iteration    1(  11)  ---------------------------------------


    POTLOK:  cpu time    1.0000: real time    1.0009
    SETDIJ:  cpu time    1.4320: real time    1.4329
     EDDAV:  cpu time   53.9200: real time   53.9392
       DOS:  cpu time    0.0000: real time    0.0001
    CHARGE:  cpu time    1.3880: real time    1.3891
    MIXING:  cpu time    0.0200: real time    0.0190
    --------------------------------------------
      LOOP:  cpu time   57.7600: real time   57.7833

 eigenvalue-minimisations  :  1280
 total energy-change (2. order) :-0.1981321E+00  (-0.2476204E-01)
 number of electron     509.9719307 magnetization      -1.4991986
 augmentation part        6.8246336 magnetization      -3.3770143

 Free energy of the ion-electron system (eV)
  ---------------------------------------------------
  alpha Z        PSCENC =       343.12918115
  Ewald energy   TEWEN  =    -21995.57842394
  -Hartree energ DENC   =     -1811.58428487
  -exchange      EXHF   =         0.00000000
  -V(xc)+E(xc)   XCENC  =      1039.56451172
  PAW double counting   =     50098.44019230   -49426.77356450
  entropy T*S    EENTRO =         0.00000000
  eigenvalues    EBANDS =      1831.35666424
  atomic energy  EATOM  =     18802.50563071
  Solvation  Ediel_sol  =         0.00000000
  ---------------------------------------------------
  free energy    TOTEN  =     -1118.94009320 eV

  energy without entropy =    -1118.94009320  energy(sigma->0) =    -1118.94009320
  exchange ACFDT corr.  =         0.00000000  see jH, gK, PRB 81, 115126


--------------------------------------------------------------------------------------------------------




----------------------------------------- Iteration    1(  12)  ---------------------------------------


    POTLOK:  cpu time    0.6840: real time    0.6863
    SETDIJ:  cpu time    0.9040: real time    0.9017
     EDDAV:  cpu time   34.9760: real time   34.9935
       DOS:  cpu time    0.0000: real time    0.0001
    CHARGE:  cpu time    0.8160: real time    0.8146
    MIXING:  cpu time    0.0120: real time    0.0122
    --------------------------------------------
      LOOP:  cpu time   37.3920: real time   37.4115

 eigenvalue-minimisations  :  1248
 total energy-change (2. order) :-0.7759739E-01  (-0.8622331E-02)
 number of electron     509.9831275 magnetization       4.0995197
 augmentation part        6.8267080 magnetization       2.2392281

 Free energy of the ion-electron system (eV)
  ---------------------------------------------------
  alpha Z        PSCENC =       343.12918115
  Ewald energy   TEWEN  =    -21995.57842394
  -Hartree energ DENC   =     -1819.22794285
  -exchange      EXHF   =         0.00000000
  -V(xc)+E(xc)   XCENC  =      1040.43415917
  PAW double counting   =     50990.33368249   -50318.93892411
  entropy T*S    EENTRO =         0.00000000
  eigenvalues    EBANDS =      1838.32494679
  atomic energy  EATOM  =     18802.50563071
  Solvation  Ediel_sol  =         0.00000000
  ---------------------------------------------------
  free energy    TOTEN  =     -1119.01769059 eV

  energy without entropy =    -1119.01769059  energy(sigma->0) =    -1119.01769059
  exchange ACFDT corr.  =         0.00000000  see jH, gK, PRB 81, 115126


--------------------------------------------------------------------------------------------------------




----------------------------------------- Iteration    1(  13)  ---------------------------------------


    POTLOK:  cpu time    0.7120: real time    0.7116
    SETDIJ:  cpu time    0.9160: real time    0.9180
     EDDAV:  cpu time   35.1640: real time   35.1767
       DOS:  cpu time    0.0000: real time    0.0001
    CHARGE:  cpu time    0.8040: real time    0.8042
    MIXING:  cpu time    0.0120: real time    0.0120
    --------------------------------------------
      LOOP:  cpu time   37.6080: real time   37.6247

 eigenvalue-minimisations  :  1256
 total energy-change (2. order) :-0.2997075E-01  (-0.3090445E-02)
 number of electron     509.9898456 magnetization       0.7402889
 augmentation part        6.8291967 magnetization      -1.1306173

 Free energy of the ion-electron system (eV)
  ---------------------------------------------------
  alpha Z        PSCENC =       343.12918115
  Ewald energy   TEWEN  =    -21995.57842394
  -Hartree energ DENC   =     -1823.52161119
  -exchange      EXHF   =         0.00000000
  -V(xc)+E(xc)   XCENC  =      1041.01486436
  PAW double counting   =     51525.64272956   -50854.39546184
  entropy T*S    EENTRO =         0.00000000
  eigenvalues    EBANDS =      1842.15542985
  atomic energy  EATOM  =     18802.50563071
  Solvation  Ediel_sol  =         0.00000000
  ---------------------------------------------------
  free energy    TOTEN  =     -1119.04766134 eV

  energy without entropy =    -1119.04766134  energy(sigma->0) =    -1119.04766134
  exchange ACFDT corr.  =         0.00000000  see jH, gK, PRB 81, 115126


--------------------------------------------------------------------------------------------------------




----------------------------------------- Iteration    1(  14)  ---------------------------------------


    POTLOK:  cpu time    0.7160: real time    0.7137
    SETDIJ:  cpu time    0.8920: real time    0.8950
     EDDAV:  cpu time   34.7680: real time   34.7814
       DOS:  cpu time    0.0000: real time    0.0001
    CHARGE:  cpu time    0.8120: real time    0.8107
    MIXING:  cpu time    0.0120: real time    0.0121
    --------------------------------------------
      LOOP:  cpu time   37.2000: real time   37.2162

 eigenvalue-minimisations  :  1240
 total energy-change (2. order) :-0.1156868E-01  (-0.1124027E-02)
 number of electron     509.9938765 magnetization       2.7558273
 augmentation part        6.8307691 magnetization       0.8911846

 Free energy of the ion-electron system (eV)
  ---------------------------------------------------
  alpha Z        PSCENC =       343.12918115
  Ewald energy   TEWEN  =    -21995.57842394
  -Hartree energ DENC   =     -1826.04851593
  -exchange      EXHF   =         0.00000000
  -V(xc)+E(xc)   XCENC  =      1041.32616462
  PAW double counting   =     51846.08113024   -51174.92298412
  entropy T*S    EENTRO =         0.00000000
  eigenvalues    EBANDS =      1844.44858725
  atomic energy  EATOM  =     18802.50563071
  Solvation  Ediel_sol  =         0.00000000
  ---------------------------------------------------
  free energy    TOTEN  =     -1119.05923002 eV

  energy without entropy =    -1119.05923002  energy(sigma->0) =    -1119.05923002
  exchange ACFDT corr.  =         0.00000000  see jH, gK, PRB 81, 115126


--------------------------------------------------------------------------------------------------------




----------------------------------------- Iteration    1(  15)  ---------------------------------------


    POTLOK:  cpu time    0.6720: real time    0.6738
    SETDIJ:  cpu time    0.8880: real time    0.8873
     EDDAV:  cpu time   35.8560: real time   35.8718
       DOS:  cpu time    0.0000: real time    0.0001
    CHARGE:  cpu time    0.8160: real time    0.8151
    MIXING:  cpu time    0.0120: real time    0.0122
    --------------------------------------------
      LOOP:  cpu time   38.2440: real time   38.2624

 eigenvalue-minimisations  :  1288
 total energy-change (2. order) :-0.4422228E-02  (-0.4100607E-03)
 number of electron     509.9962950 magnetization       1.5465043
 augmentation part        6.8320357 magnetization      -0.3219874

 Free energy of the ion-electron system (eV)
  ---------------------------------------------------
  alpha Z        PSCENC =       343.12918115
  Ewald energy   TEWEN  =    -21995.57842394
  -Hartree energ DENC   =     -1827.50338096
  -exchange      EXHF   =         0.00000000
  -V(xc)+E(xc)   XCENC  =      1041.53480879
  PAW double counting   =     52037.00558697   -51365.89506477
  entropy T*S    EENTRO =         0.00000000
  eigenvalues    EBANDS =      1845.73800981
  atomic energy  EATOM  =     18802.50563071
  Solvation  Ediel_sol  =         0.00000000
  ---------------------------------------------------
  free energy    TOTEN  =     -1119.06365225 eV

  energy without entropy =    -1119.06365225  energy(sigma->0) =    -1119.06365225
  exchange ACFDT corr.  =         0.00000000  see jH, gK, PRB 81, 115126


--------------------------------------------------------------------------------------------------------




----------------------------------------- Iteration    1(  16)  ---------------------------------------


    POTLOK:  cpu time    0.7120: real time    0.7122
    SETDIJ:  cpu time    0.8960: real time    0.8958
     EDDAV:  cpu time   34.9760: real time   34.9889
       DOS:  cpu time    0.0000: real time    0.0001
    CHARGE:  cpu time    0.8160: real time    0.8151
    MIXING:  cpu time    0.0120: real time    0.0123
    --------------------------------------------
      LOOP:  cpu time   37.4120: real time   37.4275

 eigenvalue-minimisations  :  1248
 total energy-change (2. order) :-0.1697145E-02  (-0.1505504E-03)
 number of electron     509.9977461 magnetization       2.2720980
 augmentation part        6.8327521 magnetization       0.4059056

 Free energy of the ion-electron system (eV)
  ---------------------------------------------------
  alpha Z        PSCENC =       343.12918115
  Ewald energy   TEWEN  =    -21995.57842394
  -Hartree energ DENC   =     -1828.38449033
  -exchange      EXHF   =         0.00000000
  -V(xc)+E(xc)   XCENC  =      1041.64734101
  PAW double counting   =     52150.50365178   -51479.42228622
  entropy T*S    EENTRO =         0.00000000
  eigenvalues    EBANDS =      1846.53404646
  atomic energy  EATOM  =     18802.50563071
  Solvation  Ediel_sol  =         0.00000000
  ---------------------------------------------------
  free energy    TOTEN  =     -1119.06534939 eV

  energy without entropy =    -1119.06534939  energy(sigma->0) =    -1119.06534939
  exchange ACFDT corr.  =         0.00000000  see jH, gK, PRB 81, 115126


--------------------------------------------------------------------------------------------------------




----------------------------------------- Iteration    1(  17)  ---------------------------------------


    POTLOK:  cpu time    0.6880: real time    0.6884
    SETDIJ:  cpu time    0.8920: real time    0.8934
     EDDAV:  cpu time   31.2840: real time   31.2979
       DOS:  cpu time    0.0000: real time    0.0001
    CHARGE:  cpu time    0.8080: real time    0.8073
    MIXING:  cpu time    0.0120: real time    0.0122
    --------------------------------------------
      LOOP:  cpu time   33.6840: real time   33.7014

 eigenvalue-minimisations  :  1080
 total energy-change (2. order) :-0.6460572E-03  (-0.5530531E-04)
 number of electron     509.9986168 magnetization       1.8367418
 augmentation part        6.8332082 magnetization      -0.0309734

 Free energy of the ion-electron system (eV)
  ---------------------------------------------------
  alpha Z        PSCENC =       343.12918115
  Ewald energy   TEWEN  =    -21995.57842394
  -Hartree energ DENC   =     -1828.90245766
  -exchange      EXHF   =         0.00000000
  -V(xc)+E(xc)   XCENC  =      1041.72337301
  PAW double counting   =     52217.71132920   -51546.64520014
  entropy T*S    EENTRO =         0.00000000
  eigenvalues    EBANDS =      1846.99057222
  atomic energy  EATOM  =     18802.50563071
  Solvation  Ediel_sol  =         0.00000000
  ---------------------------------------------------
  free energy    TOTEN  =     -1119.06599545 eV

  energy without entropy =    -1119.06599545  energy(sigma->0) =    -1119.06599545
  exchange ACFDT corr.  =         0.00000000  see jH, gK, PRB 81, 115126


--------------------------------------------------------------------------------------------------------




----------------------------------------- Iteration    1(  18)  ---------------------------------------


    POTLOK:  cpu time    0.6720: real time    0.6714
    SETDIJ:  cpu time    0.8840: real time    0.8851
     EDDAV:  cpu time   25.3160: real time   25.3261
       DOS:  cpu time    0.0000: real time    0.0001
    CHARGE:  cpu time    0.8160: real time    0.8137
    MIXING:  cpu time    0.0120: real time    0.0122
    --------------------------------------------
      LOOP:  cpu time   27.7000: real time   27.7116

 eigenvalue-minimisations  :   808
 total energy-change (2. order) :-0.2447884E-03  (-0.2165686E-04)
 number of electron     509.9991392 magnetization       2.0979555
 augmentation part        6.8335901 magnetization       0.2313947

 Free energy of the ion-electron system (eV)
  ---------------------------------------------------
  alpha Z        PSCENC =       343.12918115
  Ewald energy   TEWEN  =    -21995.57842394
  -Hartree energ DENC   =     -1829.22361002
  -exchange      EXHF   =         0.00000000
  -V(xc)+E(xc)   XCENC  =      1041.76498644
  PAW double counting   =     52257.53081302   -51586.47418427
  entropy T*S    EENTRO =         0.00000000
  eigenvalues    EBANDS =      1847.27936667
  atomic energy  EATOM  =     18802.50563071
  Solvation  Ediel_sol  =         0.00000000
  ---------------------------------------------------
  free energy    TOTEN  =     -1119.06624024 eV

  energy without entropy =    -1119.06624024  energy(sigma->0) =    -1119.06624024
  exchange ACFDT corr.  =         0.00000000  see jH, gK, PRB 81, 115126


--------------------------------------------------------------------------------------------------------




----------------------------------------- Iteration    1(  19)  ---------------------------------------


    POTLOK:  cpu time    0.6880: real time    0.6891
    SETDIJ:  cpu time    0.8920: real time    0.8936
     EDDAV:  cpu time   23.1760: real time   23.1843
       DOS:  cpu time    0.0000: real time    0.0001
    --------------------------------------------
      LOOP:  cpu time   24.7560: real time   24.7691

 eigenvalue-minimisations  :   712
 total energy-change (2. order) :-0.9345787E-04  (-0.9799568E-05)
 number of electron     509.9991392 magnetization       2.0979555
 augmentation part        6.8335901 magnetization       0.2313947

 Free energy of the ion-electron system (eV)
  ---------------------------------------------------
  alpha Z        PSCENC =       343.12918115
  Ewald energy   TEWEN  =    -21995.57842394
  -Hartree energ DENC   =     -1829.41886170
  -exchange      EXHF   =         0.00000000
  -V(xc)+E(xc)   XCENC  =      1041.79343076
  PAW double counting   =     52281.16802851   -51610.11628998
  entropy T*S    EENTRO =         0.00000000
  eigenvalues    EBANDS =      1847.45097079
  atomic energy  EATOM  =     18802.50563071
  Solvation  Ediel_sol  =         0.00000000
  ---------------------------------------------------
  free energy    TOTEN  =     -1119.06633370 eV

  energy without entropy =    -1119.06633370  energy(sigma->0) =    -1119.06633370
  exchange ACFDT corr.  =         0.00000000  see jH, gK, PRB 81, 115126


--------------------------------------------------------------------------------------------------------




 average (electrostatic) potential at core
  the test charge radii are     0.6557  0.6669
  (the norm of the test charge is              1.0000)
       1-107.8826       2-107.8969       3-107.8242       4-107.8525       5-107.8708
       6-107.8756       7-107.8878       8-107.8891       9-107.7918      10-107.8556
      11-107.8499      12-107.7263      13-107.7042      14-107.8844      15-107.8995
      16-107.7774      17-107.7847      18-107.7773      19-107.7875      20-107.7266
      21-107.6902      22-107.8401      23-107.8394      24-107.7586      25-107.8811
      26-107.7377      27-107.7841      28-107.8538      29-107.9023      30-107.8374
      31-107.8286      32-107.8900      33-107.8050      34-107.4379      35-107.4700
      36-107.7454      37-107.8359      38-107.6599      39-107.6326      40-107.8329
      41-107.8989      42-108.5587      43-107.7453      44-107.8637      45-107.9172
      46-107.8243      47-107.9198      48-107.9421      49-107.8704      50-107.9431
      51-107.8889      52-107.8445      53-107.8745      54-107.9203      55-107.9555
      56-107.8878      57-107.7847      58-107.7775      59-107.7875      60-107.7266
      61-107.6906      62-107.8401      63-107.8395      64-107.7588      65-107.3787
      66-107.3648      67-107.4091      68-107.0699      69-105.9798      70-107.6455
      71-107.6110      72-107.3211      73-107.5033      74-104.9299      75-107.2419
      76-107.4804      77-107.4190      78-108.4875      79-107.8989      80-108.5587
      81-107.7453      82-107.8637      83-107.9173      84-107.8243      85-107.9197
      86-107.9421      87-107.7918      88-107.8557      89-107.8500      90-107.7264
      91-107.7046      92-107.8845      93-107.8995      94-107.7775      95-107.6924
      96-107.7614      97-107.7653      98-107.5918      99-107.5076     100-107.8347
     101-107.8241     102-107.6511     103-107.3787     104-107.3642     105-107.4090
     106-107.0699     107-105.9778     108-107.6454     109-107.6108     110-107.3205
     111-107.8049     112-107.4373     113-107.4699     114-107.7454     115-107.8357
     116-107.6598     117-107.6323     118-107.8327     119-107.8826     120-107.8969
     121-107.8242     122-107.8526     123-107.8708     124-107.8756     125-107.8877
     126-107.8891     127-112.3353
 
 
 
 E-fermi :  14.8918     XC(G=0): -13.3281     alpha+bet :-20.4980


 spin component 1

 k-point     1 :       0.0000    0.0000    0.0000
  band No.  band energies     occupation 
      1      -9.1231      1.00000
      2      -8.2379      1.00000
      3      -7.6004      1.00000
      4      -7.5926      1.00000
      5      -7.5082      1.00000
      6      -7.3873      1.00000
      7      -7.3270      1.00000
      8      -7.2891      1.00000
      9      -7.1200      1.00000
     10      -6.4515      1.00000
     11      -5.9276      1.00000
     12      -5.9142      1.00000
     13      -5.8992      1.00000
     14      -5.8803      1.00000
     15      -5.8519      1.00000
     16      -5.8206      1.00000
     17      -5.7548      1.00000
     18      -5.7107      1.00000
     19      -5.6691      1.00000
     20      -5.5098      1.00000
     21      -5.3321      1.00000
     22      -4.7959      1.00000
     23      -4.6744      1.00000
     24      -4.6086      1.00000
     25      -4.6020      1.00000
     26      -4.5025      1.00000
     27      -4.3666      1.00000
     28      -4.0445      1.00000
     29      -3.8008      1.00000
     30      -3.6192      1.00000
     31      -3.3954      1.00000
     32      -3.1671      1.00000
     33      -3.0937      1.00000
     34      -3.0194      1.00000
     35      -3.0080      1.00000
     36      -3.0054      1.00000
     37      -2.9902      1.00000
     38      -2.9532      1.00000
     39      -2.9504      1.00000
     40      -2.8872      1.00000
     41      -2.8738      1.00000
     42      -2.8454      1.00000
     43      -2.7043      1.00000
     44      -2.5063      1.00000
     45      -2.2972      1.00000
     46      -2.2660      1.00000
     47      -2.2132      1.00000
     48      -2.1759      1.00000
     49      -2.0794      1.00000
     50      -1.9828      1.00000
     51      -1.9417      1.00000
     52      -1.9208      1.00000
     53      -1.9163      1.00000
     54      -1.9011      1.00000
     55      -1.8135      1.00000
     56      -1.7061      1.00000
     57      -1.6576      1.00000
     58      -1.1652      1.00000
     59      -0.8481      1.00000
     60      -0.2288      1.00000
     61      -0.2251      1.00000
     62      -0.1723      1.00000
     63      -0.1394      1.00000
     64      -0.1045      1.00000
     65      -0.0387      1.00000
[...]
   -.133E+02 0.970E+01 -.617E+01   0.136E+02 -.118E+02 0.523E+01   -.331E+00 0.210E+01 0.865E+00   0.184E-02 0.724E-03 0.533E-03
   -.618E+01 0.262E+01 0.272E+01   0.655E+01 -.275E+01 -.257E+01   -.358E+00 0.148E+00 -.124E+00   0.564E-03 -.468E-03 -.592E-03
   0.251E+00 -.596E+01 0.470E+00   0.749E+00 0.624E+01 -.918E+00   -.124E+01 -.337E+00 0.630E+00   0.122E-02 -.117E-02 0.330E-03
   -.491E+01 0.311E+01 -.945E+00   0.507E+01 -.410E+01 0.143E+01   -.114E+00 0.867E+00 -.526E+00   0.970E-03 0.799E-03 -.358E-03
   -.953E+01 0.318E+01 -.629E+01   0.979E+01 -.300E+01 0.690E+01   -.244E+00 -.903E-01 -.683E+00   0.238E-02 0.650E-03 -.518E-03
   -.145E+01 -.229E+01 -.132E+01   0.162E+01 0.249E+01 0.120E+01   -.213E+00 -.176E+00 0.108E+00   0.105E-02 -.796E-03 0.543E-03
   0.105E+01 -.393E+01 -.333E+01   -.116E+01 0.454E+01 0.366E+01   0.779E-01 -.593E+00 -.331E+00   0.108E-02 -.138E-02 0.391E-03
   -.367E+01 -.482E+01 0.546E+01   0.295E+01 0.514E+01 -.539E+01   0.912E+00 -.309E+00 -.189E+00   0.336E-02 -.215E-02 -.870E-03
   -.112E+01 -.163E+01 -.578E+00   0.813E+00 0.181E+01 0.580E+00   0.298E+00 -.181E+00 -.192E-01   0.188E-02 -.126E-02 -.112E-02
   0.129E+01 -.562E+01 0.420E+00   -.145E+01 0.682E+01 -.262E+00   0.179E+00 -.120E+01 -.151E+00   0.142E-02 -.176E-02 -.224E-02
   0.332E+01 -.765E+01 -.743E+00   -.281E+01 0.941E+01 0.404E-01   -.775E+00 -.177E+01 0.892E+00   0.449E-02 -.641E-02 -.836E-04
   -.100E+01 -.875E+00 0.337E+00   0.778E+00 0.103E+01 -.387E+00   0.231E+00 -.154E+00 0.524E-01   0.134E-02 -.939E-03 0.192E-03
   -.110E+01 -.326E+01 -.327E+01   0.792E+00 0.353E+01 0.342E+01   0.341E+00 -.241E+00 -.117E+00   0.218E-02 -.152E-02 0.121E-02
   0.202E+01 -.574E+01 0.234E+01   -.204E+01 0.657E+01 -.286E+01   -.315E-01 -.843E+00 0.472E+00   0.333E-02 -.424E-02 0.347E-02
   0.453E+01 -.262E+01 -.410E+01   -.499E+01 0.288E+01 0.470E+01   0.436E+00 -.252E+00 -.507E+00   0.165E-02 0.148E-02 -.176E-04
   0.338E+01 -.195E+01 0.270E+01   -.442E+01 0.255E+01 -.262E+01   0.116E+01 -.667E+00 -.124E+00   0.166E-02 0.179E-02 -.991E-04
   0.291E+01 -.168E+01 -.304E+01   -.373E+01 0.215E+01 0.315E+01   0.893E+00 -.516E+00 -.583E-01   0.113E-02 0.939E-03 -.134E-03
   0.844E+01 -.487E+01 -.390E+01   -.925E+01 0.534E+01 0.415E+01   0.747E+00 -.431E+00 -.319E+00   0.207E-02 0.229E-02 -.261E-03
   0.178E+02 -.103E+02 0.327E+01   -.191E+02 0.110E+02 -.365E+01   0.125E+01 -.721E+00 0.419E+00   0.518E-02 0.809E-02 0.218E-03
   0.145E+01 -.841E+00 0.110E+01   -.197E+01 0.114E+01 -.125E+01   0.536E+00 -.309E+00 0.121E+00   0.958E-03 0.529E-03 -.712E-04
   0.203E+01 -.118E+01 -.114E+01   -.268E+01 0.155E+01 0.112E+01   0.681E+00 -.393E+00 0.496E-01   0.129E-02 0.108E-02 0.278E-03
   0.869E+01 -.503E+01 0.687E+01   -.922E+01 0.532E+01 -.768E+01   0.427E+00 -.247E+00 0.720E+00   0.386E-02 0.539E-02 0.646E-04
   0.637E+01 0.378E+01 -.480E+01   -.595E+01 -.361E+01 0.795E+01   -.431E+00 -.225E-01 -.323E+01   0.186E-02 0.204E-02 -.102E-02
   0.276E+02 0.104E+02 0.834E+01   -.307E+02 -.915E+01 -.791E+01   0.272E+01 -.158E+01 -.615E+00   -.625E-02 0.113E-01 0.562E-02
   0.174E+02 0.127E+01 -.105E+02   -.193E+02 -.589E+00 0.111E+02   0.184E+01 -.734E+00 -.657E+00   0.152E-03 0.362E-02 0.438E-02
   0.737E+01 0.363E+01 -.194E+02   -.114E+02 -.624E+01 0.207E+02   0.373E+01 0.244E+01 -.114E+01   0.239E-02 0.268E-02 0.420E-02
   0.730E+02 0.438E+02 0.291E+02   -.803E+02 -.484E+02 -.314E+02   0.770E+01 0.504E+01 0.364E+01   0.121E-02 0.455E-02 0.117E-02
   0.484E+01 0.121E+01 0.831E+00   -.554E+01 -.101E+01 -.135E+01   0.804E+00 -.285E+00 0.391E+00   0.105E-02 0.196E-02 -.157E-02
   0.104E+02 0.132E+01 0.236E+01   -.113E+02 -.122E+01 -.210E+01   0.932E+00 -.294E+00 -.923E-02   -.620E-03 0.506E-02 -.447E-02
   0.223E+02 0.146E+02 0.136E+02   -.219E+02 -.144E+02 -.178E+02   -.250E+00 0.708E-01 0.383E+01   0.402E-02 0.543E-02 -.134E-01
   -.891E+00 0.445E+01 -.557E+01   0.116E+01 -.484E+01 0.587E+01   -.317E+00 0.375E+00 -.263E+00   0.904E-03 0.492E-04 -.302E-03
   0.204E+02 0.166E+02 0.809E+01   -.199E+02 -.206E+02 -.793E+01   -.559E+00 0.380E+01 -.244E+00   0.255E-02 -.114E-01 0.628E-02
   0.821E+01 0.137E+02 -.990E+01   -.840E+01 -.156E+02 0.105E+02   0.168E+00 0.186E+01 -.616E+00   0.104E-02 -.154E-02 0.496E-02
   0.467E+00 0.934E+01 -.294E+01   0.251E+00 -.990E+01 0.322E+01   -.750E+00 0.491E+00 -.282E+00   0.139E-02 -.425E-03 0.100E-02
   -.499E+01 0.149E+02 0.709E+01   0.656E+01 -.157E+02 -.686E+01   -.164E+01 0.872E+00 -.110E+00   0.464E-02 -.421E-02 0.676E-03
   0.326E+01 0.264E+01 0.329E+00   -.311E+01 -.362E+01 -.817E+00   -.135E+00 0.102E+01 0.337E+00   0.754E-03 0.217E-03 -.194E-02
   0.424E+01 0.721E+01 0.175E+01   -.408E+01 -.856E+01 -.149E+01   -.253E+00 0.141E+01 -.465E-01   0.127E-02 -.298E-02 -.526E-02
   -.377E+01 0.619E+01 0.468E+01   0.452E+01 -.646E+01 -.508E+01   -.691E+00 0.242E+00 0.350E+00   0.316E-02 -.248E-02 -.187E-02
   -.699E-01 -.218E+00 -.292E+01   0.111E+00 0.311E+00 0.315E+01   -.592E-01 -.855E-01 -.238E+00   0.103E-02 -.418E-03 -.119E-04
   -.343E+01 0.584E+01 0.179E+01   0.317E+01 -.580E+01 -.217E+01   0.225E+00 0.168E-01 0.304E+00   0.120E-02 -.225E-02 0.272E-03
   -.162E+01 0.346E+01 -.295E+01   0.156E+01 -.398E+01 0.290E+01   0.675E-01 0.591E+00 0.809E-01   0.685E-03 -.133E-02 0.391E-03
   -.258E+00 0.174E-01 0.990E+00   0.317E+00 0.143E+00 -.972E+00   -.526E-01 -.165E+00 -.120E-01   0.126E-02 -.472E-03 -.527E-03
   -.136E+01 -.159E+01 -.468E+00   0.138E+01 0.186E+01 0.516E+00   -.320E-01 -.242E+00 -.302E-01   0.256E-02 -.724E-03 0.300E-03
   -.103E+01 0.209E+01 0.845E+00   0.102E+01 -.238E+01 -.852E+00   0.237E-01 0.292E+00 0.154E-02   0.459E-03 -.852E-03 -.369E-03
   -.165E+01 0.168E+01 -.124E+01   0.161E+01 -.188E+01 0.127E+01   0.278E-01 0.230E+00 -.200E-01   0.780E-03 -.158E-02 -.208E-03
   -.658E+00 -.116E+01 0.250E+01   0.716E+00 0.133E+01 -.272E+01   -.737E-01 -.170E+00 0.200E+00   0.200E-02 -.707E-03 0.385E-03
   -.905E+02 0.523E+02 0.362E+02   0.111E+03 -.643E+02 -.446E+02   -.203E+02 0.117E+02 0.777E+01   0.324E-02 0.749E-02 0.574E-03
 -----------------------------------------------------------------------------------------------
   0.742E+01 -.421E+01 0.931E+01   -.139E-11 -.284E-13 -.149E-12   -.738E+01 0.426E+01 -.931E+01   -.173E-01 -.262E-01 -.246E-04
 
 
 POSITION                                       TOTAL-FORCE (eV/Angst)
 -----------------------------------------------------------------------------------
      0.00102      1.45450      0.25707        -0.014198      0.011748     -0.002684
      1.26700      0.73538      3.86618        -0.060916     -0.006407     -0.075841
      1.26423      0.72946      2.31858        -0.054067     -0.047505      0.029177
      0.00267      1.45432      1.80571         0.007972     -0.004319      0.005307
      0.00298      1.45545      4.37581        -0.030099     -0.009158      0.017470
      1.26229      0.72858      7.98698         0.010905     -0.010318     -0.006356
      1.26200      0.72810      6.43631        -0.028019     -0.011046      0.017312
      0.00130      1.45448      5.92505        -0.002776      0.014804     -0.019894
     -1.26024      3.63713      0.25418        -0.031512      0.017083      0.001194
     -0.00052      2.91006      3.86256         0.095615     -0.167611     -0.114941
      0.00270      2.91017      2.31500        -0.003829      0.003647     -0.018300
     -1.26097      3.63591      1.80237         0.018824     -0.020277      0.004732
     -1.24816      3.63235      4.37019        -0.104607      0.241679      0.189859
      0.00019      2.91044      7.98630         0.006853     -0.004232      0.001812
     -0.00255      2.91051      6.43719        -0.007734     -0.046805      0.029843
     -1.26001      3.63473      5.91992        -0.012018      0.055478     -0.051781
     -2.52059      5.81873      0.25472        -0.005442     -0.013684      0.005516
     -1.26141      5.09198      3.86138         0.005338     -0.037846     -0.069960
     -1.26068      5.09175      2.31341         0.017997     -0.011486      0.000629
     -2.52293      5.81625      1.80373        -0.045340      0.037798      0.018177
     -2.52038      5.82723      4.37156         0.000641      0.001497      0.105692
     -1.26043      5.09203      7.98172        -0.002014     -0.013355     -0.013652
     -1.26208      5.09181      6.43230        -0.013714     -0.022029      0.034430
     -2.52253      5.82109      5.91980        -0.005533      0.022270     -0.043755
     -3.77970      8.00190      0.25752         0.003251     -0.001877      0.010231
     -2.51990      7.27456      3.86170         0.020575     -0.011879     -0.001931
     -2.51919      7.27415      2.31445         0.031193     -0.018009     -0.010337
     -3.77890      8.00144      1.80699        -0.000670      0.000387     -0.001724
     -3.77788      8.00085      4.37646        -0.008252      0.004764      0.057453
     -2.51937      7.27425      7.98444         0.023006     -0.013282      0.004621
     -2.51945      7.27430      6.43466         0.017273     -0.009973      0.010763
     -3.77924      8.00164      5.92496         0.011840     -0.006836     -0.026490
      2.52375      1.45786      0.26103        -0.015864      0.044379      0.045391
      3.79776      0.74153      3.86338         0.196743      0.160884     -0.072704
      3.78892      0.73359      2.31732        -0.004733      0.014420      0.004462
      2.52757      1.45850      1.81506         0.048124      0.063194      0.005832
      2.53756      1.47136      4.38220        -0.030337      0.058186      0.112778
      3.78314      0.72846      7.98183        -0.024446     -0.032186     -0.153236
      3.78180      0.72951      6.43245        -0.086144      0.048691      0.202764
      2.52384      1.45733      5.92567         0.052428     -0.039459     -0.043474
      1.26173      3.63780      0.25923        -0.035349      0.012818     -0.012522
      2.51785      2.94438      3.89070         0.114551     -0.373533     -0.285763
      2.53558      2.91737      2.33417        -0.014204      0.033682     -0.076349
      1.26697      3.63805      1.80947        -0.001951     -0.022901      0.021511
      1.24092      3.63849      4.37595        -0.077287      0.234744      0.182364
      2.52101      2.91298      7.98635         0.133032      0.024633     -0.038572
      2.51219      2.91172      6.43771        -0.068626     -0.055547     -0.071444
      1.25169      3.63793      5.92530        -0.038715      0.028031     -0.013348
     -0.00083      5.82017      0.25434        -0.006628      0.003826     -0.013350
      1.25150      5.09714      3.86416         0.054325     -0.031365     -0.059097
      1.25772      5.09354      2.31653        -0.011368      0.006563     -0.042176
     -0.00151      5.82056      1.80178        -0.007469      0.004312     -0.003242
     -0.00433      5.82219      4.37331        -0.064641      0.037321      0.040442
      1.25913      5.09273      7.98567         0.028520     -0.016466      0.014295
      1.25673      5.09411      6.43654        -0.002413      0.001393      0.006148
     -0.00287      5.82135      5.92276        -0.009214      0.005320     -0.028241
     -1.25947      8.00307      0.25472         0.009130      0.011554      0.005516
     -0.00049      7.27596      3.86138         0.035445      0.014300     -0.069960
      0.00008      7.27544      2.31341         0.018945     -0.009843      0.000629
     -1.25849      8.00633      1.80373        -0.055404      0.020366      0.018177
     -1.26672      7.99863      4.37156        -0.000976     -0.001303      0.105692
     -0.00004      7.27508      7.98172         0.010558      0.008421     -0.013652
     -0.00068      7.27662      6.43230         0.012220      0.022891      0.034430
     -1.26248      8.00357      5.91980        -0.022053     -0.006344     -0.043755
      5.04242      1.45013      0.24222        -0.138875     -0.066506     -0.088652
      6.29687      0.72540      3.86327         0.079199      0.434236     -0.179695
      6.29974      0.72807      2.31601         0.042731      0.032545     -0.056918
      5.04696      1.47148      1.80787        -0.017133      0.360611      0.217830
      5.05353      1.33613      4.40262        -0.187074     -0.564634      1.397823
      6.29960      0.72776      7.97880         0.127114     -0.051645     -0.131020
      6.30156      0.72926      6.43047         0.181049      0.064751      0.244606
      5.04246      1.44886      5.89364        -0.168312     -0.296583     -0.375962
      3.77814      3.63838      0.25436        -0.266126      0.153648     -0.387522
      5.05957      2.89855      2.25753        -1.068840      0.617095     -0.967299
      3.80688      3.62179      1.83135         0.883574     -0.510132     -0.190577
      5.03688      2.91164      7.95936        -0.004958      0.002863     -0.020342
      5.03337      2.91367      6.40084         0.040748     -0.023526      0.174445
      3.75299      3.65290      5.89672         0.051741     -0.029872      0.310172
      2.52044      5.81794      0.25923        -0.028776      0.024204     -0.012522
      3.74902      5.07683      3.89070         0.380765      0.087563     -0.285763
      3.78128      5.07497      2.33417        -0.036271     -0.004540     -0.076349
      2.52284      5.81328      1.80947         0.018858      0.013141      0.021511
      2.50943      5.83563      4.37595        -0.241938     -0.050440      0.182364
      3.77779      5.08979      7.98635         0.045183     -0.127525     -0.038572
      3.77447      5.09806      6.43771         0.013792      0.087205     -0.071444
      2.51530      5.82657      5.92530        -0.043633      0.019512     -0.013348
      1.26003      8.00237      0.25418        -0.030550      0.018749      0.001194
      2.51955      7.27496      3.86256         0.192963      0.001001     -0.114941
      2.52107      7.27212      2.31500        -0.005073      0.001493     -0.018300
      1.26072      8.00361      1.80237         0.026972     -0.006163      0.004732
      1.27021      7.99430      4.37019        -0.261604     -0.030247      0.189859
      2.51958      7.27415      7.98630         0.007092     -0.003819      0.001812
      2.51815      7.27649      6.43719         0.036667      0.030100      0.029843
      1.26222      8.00337      5.91992        -0.054054     -0.017331     -0.051781
      7.55941      1.45526      0.25568        -0.023503      0.013569      0.096298
      8.82175      0.72645      3.86511         0.108374     -0.062570     -0.048840
      8.82185      0.72639      2.31632         0.075080     -0.043347      0.052845
      7.56059      1.45458      1.80651        -0.063134      0.036451     -0.070675
      7.56001      1.45492      4.37282        -0.033944      0.019598      0.042620
      8.82000      0.72746      7.98455         0.023401     -0.013511     -0.028101
      8.82073      0.72704      6.43485         0.033924     -0.019586      0.034384
      7.56091      1.45440      5.91969        -0.098178      0.056683     -0.084710
      6.30536      3.63760      0.24222        -0.011841      0.153522     -0.088652
      7.56022      2.91359      3.86327        -0.336460     -0.285706     -0.179695
      7.55935      2.90976      2.31601        -0.006819     -0.053278     -0.056918
      6.28914      3.62300      1.80787        -0.320865     -0.165468      0.217830
      6.40964      3.68499      4.40262         0.395450      0.444328      1.397823
      7.55954      2.91004      7.97880         0.108283     -0.084262     -0.131020
      7.55922      2.90760      6.43047         0.034448     -0.189169      0.244606
      6.30648      3.63821      5.89364         0.172692      0.294054     -0.375962
      5.03933      5.81497      0.26103        -0.046365     -0.008451      0.045391
      6.29670      5.06981      3.86338        -0.040958     -0.250827     -0.072704
      6.29915      5.08144      2.31732        -0.014855     -0.003112      0.004462
      5.04068      5.81135      1.81506        -0.030666     -0.073273      0.005832
      5.03454      5.79627      4.38220        -0.065559     -0.002821      0.112778
      6.30071      5.08901      7.98183         0.015651      0.037264     -0.153236
      6.29912      5.08965      6.43245        -0.085240      0.050258      0.202764
      5.03984      5.81517      5.92567         0.060386     -0.025675     -0.043474
      3.78088      8.00140      0.25707        -0.017273      0.006422     -0.002684
      5.03664      7.26459      3.86618        -0.024910      0.055958     -0.075841
      5.04038      7.26995      2.31858         0.014107      0.070576      0.029177
      3.78186      8.00007      1.80571         0.007726     -0.004745      0.005307
      3.78104      7.99923      4.37581        -0.007119      0.030646      0.017470
      5.04018      7.27207      7.98698         0.014388     -0.004285     -0.006356
      5.04045      7.27257      6.43631        -0.004443      0.029788      0.017312
      3.78103      8.00117      5.92505        -0.014209     -0.004998     -0.019894
      3.63143      3.72309      4.44401         0.630453     -0.363992     -0.629450
 -----------------------------------------------------------------------------------
    total drift:                                0.018600      0.031480      0.005391


--------------------------------------------------------------------------------------------------------



  FREE ENERGIE OF THE ION-ELECTRON SYSTEM (eV)
  ---------------------------------------------------
  free  energy   TOTEN  =     -1119.06633370 eV

  energy  without entropy=    -1119.06633370  energy(sigma->0) =    -1119.06633370
 


--------------------------------------------------------------------------------------------------------


    POTLOK:  cpu time    1.5800: real time    1.5807

 Spin-spin contribution to zero-field splitting tensor (MHz)
 ---------------------------------------------------------------
      D_xx      D_yy      D_zz      D_xy      D_xz      D_yz
 ---------------------------------------------------------------
     22.758  -860.207   837.439  -764.670   625.629  -361.207
 ---------------------------------------------------------------

 after diagonalization
 ---------------------------------------------
     D_diag          eigenvector (x,y,z)
 ---------------------------------------------
    -95.285      -0.685     0.395     0.612
  -1301.689      -0.500    -0.866    -0.000
   1396.964       0.530    -0.306     0.791
---------------------------------------------



--------------------------------------------------------------------------------------------------------


 writing wavefunctions
     LOOP+:  cpu time 1714.9880: real time 1716.1352
    4ORBIT:  cpu time    0.0000: real time    0.0000

 total amount of memory used by VASP on root node   230919. kBytes
========================================================================

   base      :      30000. kBytes
   nonl-proj :      15710. kBytes
   fftplans  :      27920. kBytes
   grid      :      73360. kBytes
   one-center:       2950. kBytes
   HF        :        193. kBytes
   nonlr-proj:       8920. kBytes
   wavefun   :      71866. kBytes
 
  
  
 General timing and accounting informations for this job:
 ========================================================
  
                  Total CPU time used (sec):     1727.792
                            User time (sec):     1727.308
                          System time (sec):        0.484
                         Elapsed time (sec):     1729.223
  
                   Maximum memory used (kb):      368372.
                   Average memory used (kb):           0.
  
                          Minor page faults:        77326
                          Major page faults:            0
                 Voluntary context switches:         3253
