 vasp.5.3.6 23Jan15 (build Feb 02 2016 19:35:31) gamma-only                     
  
 executed on           IFC91_ompi date 2016.02.06  22:38:39
 running on    1 total cores
 distrk:  each k-point on    1 cores,    1 groups
 distr:  one band on NCORES_PER_BAND=   1 cores,    1 groups


--------------------------------------------------------------------------------------------------------


 INCAR:
 POTCAR:    PAW_PBE C_GW_new 19Mar2012            
 POTCAR:   PAW_PBE N_GW_new 19Mar2012             
 POTCAR:    PAW_PBE C_GW_new 19Mar2012            
   VRHFIN =C: s2p2                                                              
   LEXCH  = PE                                                                  
   EATOM  =   147.1560 eV,   10.8157 Ry                                         
                                                                                
   TITEL  = PAW_PBE C_GW_new 19Mar2012                                          
   LULTRA =        F    use ultrasoft PP ?                                      
   IUNSCR =        1    unscreen: 0-lin 1-nonlin 2-no                           
   RPACOR =    0.800    partial core radius                                     
   POMASS =   12.011; ZVAL   =    4.000    mass and valenz                      
   RCORE  =    1.600    outmost cutoff radius                                   
   RWIGS  =    1.600; RWIGS  =    0.847    wigner-seitz radius (au A)           
   ENMAX  =  413.992; ENMIN  =  310.494 eV                                      
   ICORE  =        3    local potential                                         
   LCOR   =        T    correct aug charges                                     
   LPAW   =        T    paw PP                                                  
   EAUG   = 1213.930                                                            
   DEXC   =    0.000                                                            
   RMAX   =    1.630    core radius for proj-oper                               
   RAUG   =    1.300    factor for augmentation sphere                          
   RDEP   =    1.601    radius for radial grids                                 
   RDEPT  =    1.200    core radius for aug-charge                              
                                                                                
   Atomic configuration                                                         
    5 entries                                                                   
     n  l   j            E        occ.                                          
     1  0  0.50      -273.3789   2.0000                                         
     2  0  0.50       -13.7508   2.0000                                         
     2  1  0.50        -5.2854   2.0000                                         
     3  2  1.50        -5.4423   0.0000                                         
     4  3  2.50        -5.4423   0.0000                                         
   Description                                                                  
     l       E           TYP  RCUT    TYP  RCUT                                 
     0    -13.7508457     23  1.200                                             
     0     -7.5219285     23  1.200                                             
     0    272.1165200     23  1.300                                             
     1     -5.2854382     23  1.500                                             
     1    108.8466080     23  1.500                                             
     2     27.2116520     23  1.500                                             
     2    190.4815640     23  1.600                                             
     3     54.4233040     23  1.400                                             
  local pseudopotential read in
  partial core-charges read in
  partial kinetic energy density read in
  kinetic energy density of atom read in
  atomic valenz-charges read in
  non local Contribution for L=           0  read in
    real space projection operators read in
  non local Contribution for L=           0  read in
    real space projection operators read in
  non local Contribution for L=           0  read in
    real space projection operators read in
  non local Contribution for L=           1  read in
    real space projection operators read in
  non local Contribution for L=           1  read in
    real space projection operators read in
  non local Contribution for L=           2  read in
    real space projection operators read in
  non local Contribution for L=           2  read in
    real space projection operators read in
    PAW grid and wavefunctions read in
 
   number of l-projection  operators is LMAX  =           7
   number of lm-projection operators is LMMAX =          19
 
 POTCAR:   PAW_PBE N_GW_new 19Mar2012             
   VRHFIN =N: s2p3                                                              
   LEXCH  = PE                                                                  
   EATOM  =   264.5486 eV,   19.4438 Ry                                         
                                                                                
   TITEL  = PAW_PBE N_GW_new 19Mar2012                                          
   LULTRA =        F    use ultrasoft PP ?                                      
   IUNSCR =        1    unscreen: 0-lin 1-nonlin 2-no                           
   RPACOR =    0.800    partial core radius                                     
   POMASS =   14.001; ZVAL   =    5.000    mass and valenz                      
   RCORE  =    1.600    outmost cutoff radius                                   
   RWIGS  =    1.600; RWIGS  =    0.847    wigner-seitz radius (au A)           
   ENMAX  =  420.902; ENMIN  =  315.677 eV                                      
   ICORE  =        3    local potential                                         
   LCOR   =        T    correct aug charges                                     
   LPAW   =        T    paw PP                                                  
   EAUG   = 1173.595                                                            
   DEXC   =    0.000                                                            
   RMAX   =    1.638    core radius for proj-oper                               
   RAUG   =    1.300    factor for augmentation sphere                          
   RDEP   =    1.609    radius for radial grids                                 
   RDEPT  =    1.200    core radius for aug-charge                              
                                                                                
   Atomic configuration                                                         
    5 entries                                                                   
     n  l   j            E        occ.                                          
     1  0  0.50      -384.7179   2.0000                                         
     2  0  0.50       -18.5828   2.0000                                         
     2  1  0.50        -7.0898   3.0000                                         
     3  2  1.50        -8.1635   0.0000                                         
     4  3  2.50        -8.1635   0.0000                                         
   Description                                                                  
     l       E           TYP  RCUT    TYP  RCUT                                 
     0    -18.5828120     23  1.150                                             
     0    -16.4356426     23  1.150                                             
     0    258.5106940     23  1.300                                             
     1     -7.0897854     23  1.500                                             
     1     -3.1993695     23  1.500                                             
     1    136.0582600     23  1.500                                             
     2     27.2116520     23  1.500                                             
     2    190.4815640     23  1.600                                             
     3     54.4233040     23  1.400                                             
  local pseudopotential read in
  partial core-charges read in
  partial kinetic energy density read in
  kinetic energy density of atom read in
  atomic valenz-charges read in
  non local Contribution for L=           0  read in
    real space projection operators read in
  non local Contribution for L=           0  read in
    real space projection operators read in
  non local Contribution for L=           0  read in
    real space projection operators read in
  non local Contribution for L=           1  read in
    real space projection operators read in
  non local Contribution for L=           1  read in
    real space projection operators read in
  non local Contribution for L=           1  read in
    real space projection operators read in
  non local Contribution for L=           2  read in
    real space projection operators read in
  non local Contribution for L=           2  read in
    real space projection operators read in
    PAW grid and wavefunctions read in
 
   number of l-projection  operators is LMAX  =           8
   number of lm-projection operators is LMMAX =          22
 

 ----------------------------------------------------------------------------- 
|                                                                             |
|  ADVICE TO THIS USER RUNNING 'VASP/VAMP'   (HEAR YOUR MASTER'S VOICE ...):  |
|                                                                             |
|      You have a (more or less) 'large supercell' and for larger cells       |
|      it might be more efficient to use real space projection opertators     |
|      So try LREAL= Auto  in the INCAR   file.                               |
|      Mind: At the moment your POTCAR file does not contain real space       |
|       projectors, and has to be modified,  BUT if you                       |
|      want to do an extremely  accurate calculation you might also keep the  |
|      reciprocal projection scheme          (i.e. LREAL=.FALSE.)             |
|                                                                             |
 ----------------------------------------------------------------------------- 

  PAW_PBE C_GW_new 19Mar2012            :
 energy of atom  1       EATOM= -147.1560
 kinetic energy error for atom=    0.0288 (will be added to EATOM!!)
 PAW_PBE N_GW_new 19Mar2012             :
 energy of atom  2       EATOM= -264.5486
 kinetic energy error for atom=    0.0732 (will be added to EATOM!!)
 
 
 POSCAR: C                                       
  positions in direct lattice
  velocities in cartesian coordinates
 exchange correlation table for  LEXCH =        8
   RHO(1)=    0.500       N(1)  =     2000
   RHO(2)=  100.500       N(2)  =     4000
 


--------------------------------------------------------------------------------------------------------


 ion  position               nearest neighbor table
   1  0.083  0.167  0.031- 100 1.54  14 1.54   6 1.54   4 1.55
   2  0.168  0.084  0.469-   5 1.54   3 1.55  29 1.55  37 1.56
   3  0.167  0.083  0.281-  36 1.54  28 1.54   4 1.54   2 1.55
   4  0.083  0.167  0.219-  11 1.54   3 1.54  97 1.54   1 1.55
   5  0.084  0.167  0.531-  10 1.54   2 1.54  96 1.55   8 1.55
   6  0.167  0.083  0.969-  25 1.54  33 1.54   1 1.54   7 1.55
   7  0.166  0.082  0.781-  32 1.53   8 1.54   6 1.55  40 1.56
   8  0.083  0.167  0.719- 101 1.54  15 1.54   7 1.54   5 1.55
   9  0.083  0.417  0.031-  14 1.54 108 1.54  22 1.54  12 1.55
  10  0.168  0.333  0.469-   5 1.54  11 1.55  13 1.55  45 1.56
  11  0.167  0.333  0.281-  44 1.54  12 1.54   4 1.54  10 1.55
  12  0.083  0.417  0.219-  11 1.54 105 1.54  19 1.54   9 1.55
  13  0.083  0.417  0.531-  18 1.54  16 1.55  10 1.55 104 1.55
  14  0.167  0.334  0.969-   9 1.54  41 1.54   1 1.54  15 1.55
  15  0.166  0.334  0.781-  16 1.53   8 1.54  14 1.55  48 1.56
  16  0.083  0.417  0.719-  15 1.53 109 1.53  23 1.54  13 1.55
  17  0.083  0.667  0.031-  30 1.54  22 1.54 116 1.54  20 1.55
  18  0.167  0.583  0.469-  13 1.54  21 1.54  53 1.54  19 1.55
  19  0.167  0.583  0.281-  20 1.54  52 1.54  12 1.54  18 1.55
  20  0.083  0.667  0.219-  27 1.54  19 1.54 113 1.54  17 1.55
  21  0.083  0.667  0.531-  26 1.54  18 1.54 112 1.54  24 1.55
  22  0.167  0.583  0.969-   9 1.54  17 1.54  49 1.54  23 1.55
  23  0.167  0.583  0.781-  16 1.54  24 1.54  56 1.54  22 1.55
  24  0.083  0.666  0.719-  31 1.54  23 1.54 117 1.55  21 1.55
  25  0.083  0.917  0.031-   6 1.54 124 1.54  30 1.54  28 1.55
  26  0.167  0.833  0.469-  29 1.54  21 1.54  61 1.54  27 1.55
  27  0.167  0.833  0.281-  20 1.54  60 1.54  28 1.54  26 1.55
  28  0.083  0.917  0.219-   3 1.54 121 1.54  27 1.54  25 1.55
  29  0.083  0.917  0.531-  26 1.54  32 1.55   2 1.55 120 1.55
  30  0.167  0.833  0.969-  25 1.54  17 1.54  57 1.54  31 1.55
  31  0.167  0.833  0.781-  32 1.54  24 1.54  64 1.54  30 1.55
  32  0.083  0.917  0.719-   7 1.53 125 1.53  31 1.54  29 1.55
  33  0.333  0.166  0.031-  38 1.54  36 1.54   6 1.54  46 1.54
  34  0.417  0.084  0.470-  37 1.54  69 1.54  61 1.54  35 1.55
  35  0.417  0.083  0.281-  36 1.54  68 1.54  60 1.54  34 1.55
  36  0.333  0.166  0.219-  43 1.54   3 1.54  35 1.54  33 1.54
  37  0.336  0.169  0.532-  34 1.54  40 1.55  42 1.55   2 1.56
  38  0.417  0.084  0.969-  33 1.54  65 1.54  57 1.54  39 1.55
  39  0.417  0.084  0.781-  40 1.54  72 1.54  38 1.55  64 1.55
  40  0.335  0.169  0.720-  47 1.49  39 1.54  37 1.55   7 1.56
  41  0.333  0.417  0.031-  54 1.54  44 1.54  14 1.54  46 1.54
  42  0.421  0.336  0.468- 127 1.48  37 1.55  45 1.55  43 1.55
  43  0.416  0.333  0.279-  36 1.54  44 1.54  76 1.55  42 1.55
  44  0.333  0.417  0.219-  43 1.54  11 1.54  51 1.54  41 1.54
  45  0.336  0.417  0.532-  50 1.54  48 1.55  42 1.55  10 1.56
  46  0.416  0.333  0.967-  47 1.48  33 1.54  41 1.54  73 1.55
  47  0.404  0.327  0.788-  46 1.48  40 1.49  48 1.49
  48  0.335  0.416  0.720-  47 1.49  55 1.54  45 1.55  15 1.56
  49  0.333  0.667  0.031-  62 1.54  22 1.54  54 1.54  52 1.55
  50  0.417  0.583  0.470-  45 1.54  83 1.54  53 1.54  51 1.55
  51  0.417  0.583  0.281-  44 1.54  82 1.54  52 1.54  50 1.55
  52  0.333  0.667  0.219-  59 1.54  19 1.54  51 1.54  49 1.55
  53  0.333  0.667  0.531-  58 1.54  18 1.54  50 1.54  56 1.55
  54  0.417  0.583  0.969-  41 1.54  79 1.54  49 1.54  55 1.55
  55  0.417  0.583  0.781-  48 1.54  86 1.54  54 1.55  56 1.55
  56  0.334  0.666  0.719-  63 1.54  23 1.54  55 1.55  53 1.55
  57  0.333  0.917  0.031-  62 1.54  30 1.54  38 1.54  60 1.55
  58  0.417  0.833  0.469-  91 1.54  53 1.54  61 1.54  59 1.55
  59  0.417  0.833  0.281-  52 1.54  60 1.54  90 1.54  58 1.55
  60  0.333  0.917  0.219-  59 1.54  27 1.54  35 1.54  57 1.55
  61  0.333  0.917  0.531-  58 1.54  26 1.54  34 1.54  64 1.55
  62  0.417  0.833  0.969-  87 1.54  49 1.54  57 1.54  63 1.55
  63  0.417  0.833  0.781-  94 1.54  56 1.54  64 1.54  62 1.55
  64  0.334  0.917  0.719-  63 1.54  31 1.54  39 1.55  61 1.55
  65  0.583  0.166  0.031-  38 1.54  68 1.54  70 1.54  77 1.54
  66  0.667  0.084  0.469-  99 1.54  67 1.55  91 1.55  69 1.56
  67  0.667  0.083  0.281-  68 1.54  90 1.54  98 1.54  66 1.55
  68  0.583  0.166  0.219-  75 1.54  67 1.54  35 1.54  65 1.54
  69  0.583  0.169  0.532-  34 1.54  72 1.55  74 1.55  66 1.56
  70  0.666  0.083  0.969-  87 1.54  65 1.54  95 1.54  71 1.55
  71  0.666  0.082  0.781-  94 1.53 102 1.54  70 1.55  72 1.56
  72  0.584  0.169  0.720-  78 1.49  39 1.54  69 1.55  71 1.56
  73  0.583  0.417  0.030-  76 1.53  84 1.55  77 1.55  46 1.55
  74  0.664  0.336  0.468- 127 1.48  69 1.55 107 1.55  75 1.55
  75  0.667  0.333  0.279-  68 1.54 106 1.54  76 1.55  74 1.55
  76  0.583  0.417  0.216-  73 1.53  81 1.55  75 1.55  43 1.55
  77  0.667  0.333  0.967-  78 1.48  65 1.54 103 1.54  73 1.55
  78  0.673  0.327  0.788-  77 1.48  72 1.49 110 1.49
  79  0.583  0.667  0.031-  54 1.54  82 1.54  92 1.54  84 1.54
  80  0.664  0.579  0.468- 127 1.48  83 1.55 115 1.55  81 1.55
  81  0.667  0.584  0.279-  82 1.54 114 1.54  76 1.55  80 1.55
  82  0.583  0.667  0.219-  81 1.54  89 1.54  51 1.54  79 1.54
  83  0.583  0.664  0.532-  50 1.54  86 1.55  80 1.55  88 1.56
  84  0.667  0.584  0.967-  85 1.48  79 1.54 111 1.54  73 1.55
  85  0.673  0.596  0.788-  84 1.48  86 1.49 118 1.49
  86  0.584  0.665  0.720-  85 1.49  55 1.54  83 1.55  93 1.56
  87  0.583  0.917  0.031-  70 1.54  92 1.54  62 1.54  90 1.55
  88  0.667  0.832  0.469- 123 1.54  89 1.55  91 1.55  83 1.56
  89  0.667  0.833  0.281-  82 1.54  90 1.54 122 1.54  88 1.55
  90  0.583  0.917  0.219-  67 1.54  89 1.54  59 1.54  87 1.55
  91  0.583  0.917  0.531-  58 1.54  94 1.55  66 1.55  88 1.55
  92  0.666  0.833  0.969-  87 1.54  79 1.54 119 1.54  93 1.55
  93  0.666  0.834  0.781-  94 1.53 126 1.54  92 1.55  86 1.56
  94  0.583  0.917  0.719-  71 1.53  93 1.53  63 1.54  91 1.55
  95  0.833  0.167  0.031- 100 1.54 108 1.54  70 1.54  98 1.55
  96  0.917  0.083  0.469- 123 1.55  99 1.55   5 1.55  97 1.55
  97  0.917  0.083  0.281- 122 1.54  98 1.54   4 1.54  96 1.55
  98  0.833  0.167  0.219- 105 1.54  67 1.54  97 1.54  95 1.55
  99  0.833  0.167  0.531- 104 1.54  66 1.54  96 1.55 102 1.55
 100  0.917  0.083  0.969- 119 1.54  95 1.54   1 1.54 101 1.55
 101  0.917  0.083  0.781- 126 1.54 102 1.54   8 1.54 100 1.55
 102  0.833  0.167  0.719- 101 1.54 109 1.54  71 1.54  99 1.55
 103  0.834  0.417  0.031- 116 1.54 106 1.54 108 1.54  77 1.54
 104  0.916  0.333  0.469-  99 1.54 105 1.55  13 1.55 107 1.56
 105  0.917  0.333  0.281- 106 1.54  12 1.54  98 1.54 104 1.55
 106  0.834  0.417  0.219-  75 1.54 105 1.54 113 1.54 103 1.54
 107  0.831  0.417  0.532- 112 1.54 110 1.55  74 1.55 104 1.56
 108  0.917  0.334  0.969-   9 1.54 103 1.54  95 1.54 109 1.55
 109  0.918  0.334  0.781-  16 1.53 102 1.54 108 1.55 110 1.56
 110  0.831  0.416  0.720-  78 1.49 117 1.54 107 1.55 109 1.56
 111  0.834  0.667  0.031- 116 1.54 114 1.54 124 1.54  84 1.54
 112  0.916  0.583  0.470- 107 1.54 115 1.54  21 1.54 113 1.55
 113  0.917  0.583  0.281- 106 1.54 114 1.54  20 1.54 112 1.55
 114  0.834  0.667  0.219-  81 1.54 121 1.54 113 1.54 111 1.54
 115  0.831  0.664  0.532- 112 1.54 118 1.55  80 1.55 120 1.56
 116  0.916  0.583  0.969- 103 1.54 111 1.54  17 1.54 117 1.55
 117  0.916  0.583  0.781- 110 1.54 118 1.54 116 1.55  24 1.55
 118  0.831  0.665  0.720-  85 1.49 117 1.54 115 1.55 125 1.56
 119  0.833  0.917  0.031- 100 1.54 124 1.54  92 1.54 122 1.55
 120  0.916  0.832  0.469- 123 1.54 121 1.55  29 1.55 115 1.56
 121  0.917  0.833  0.281- 114 1.54  28 1.54 122 1.54 120 1.55
 122  0.833  0.917  0.219- 121 1.54  89 1.54  97 1.54 119 1.55
 123  0.833  0.916  0.531- 120 1.54  88 1.54  96 1.55 126 1.55
 124  0.917  0.833  0.969-  25 1.54 111 1.54 119 1.54 125 1.55
 125  0.918  0.834  0.781-  32 1.53 126 1.54 124 1.55 118 1.56
 126  0.833  0.917  0.719- 101 1.54 125 1.54  93 1.54 123 1.55
 127  0.583  0.417  0.519-  80 1.48  74 1.48  42 1.48
 
  LATTYP: Found a hexagonal cell.
 ALAT       =    10.0799999235
 C/A-ratio  =     0.8174603010
  
  Lattice vectors:
  
 A1 = (  10.0799999236,   0.0000000000,   0.0000000000)
 A2 = (  -5.0399999620,   8.7295360040,   0.0000000000)
 A3 = (   0.0000000000,   0.0000000000,   8.2399997712)


Analysis of symmetry for initial positions (statically):
=====================================================================
 Subroutine PRICEL returns:
 Original cell was already a primitive cell.
 

 Routine SETGRP: Setting up the symmetry group for a 
 hexagonal supercell.


 Subroutine GETGRP returns: Found  6 space group operations
 (whereof  2 operations were pure point group operations)
 out of a pool of 24 trial point group operations.


The static configuration has the point symmetry C_1h.
 The point group associated with its full space group is C_3v.


Analysis of symmetry for dynamics (positions and initial velocities):
=====================================================================
 Subroutine PRICEL returns:
 Original cell was already a primitive cell.
 

 Routine SETGRP: Setting up the symmetry group for a 
 hexagonal supercell.


 Subroutine GETGRP returns: Found  6 space group operations
 (whereof  2 operations were pure point group operations)
 out of a pool of 24 trial point group operations.


The dynamic configuration has the point symmetry C_1h.
 The point group associated with its full space group is C_3v.


Analysis of magnetic symmetry:
=====================================================================
 Subroutine PRICEL returns:
 Original cell was already a primitive cell.
 

 Subroutine MAGSYM returns: Found  6 space group operations
 (whereof  2 operations were pure point group operations)
 out of a pool of  6 trial space group operations
 (whereof  2 operations were pure point group operations)
 and found also     1 'primitive' translations


The magnetic configuration has the point symmetry C_1h.
 The point group associated with its full space group is C_3v.
 
 
 KPOINTS: Automatically generated mesh            

Automatic generation of k-mesh.
Space group operators:
 irot       det(A)        alpha          n_x          n_y          n_z        tau_x        tau_y        tau_z
    1     1.000000     0.000001     1.000000     0.000000     0.000000     0.000000     0.000000     0.000000
    2    -1.000000   179.999999    -0.500000    -0.866025     0.000000     0.000000     0.000000     0.000000
    3     1.000000   120.000000     0.000000     0.000000    -1.000000     0.000000     0.250000     0.000000
    4     1.000000   120.000000     0.000000     0.000000     1.000000     0.750000     0.000000     0.000000
    5    -1.000000   180.000000     1.000000     0.000000     0.000000     0.750000     0.000000     0.000000
    6    -1.000000   180.000000     0.500000    -0.866025     0.000000    -0.000000     0.250000     0.000000
 
 Subroutine IBZKPT returns following result:
 ===========================================
 
 Found      1 irreducible k-points:
 
 Following reciprocal coordinates:
            Coordinates               Weight
  0.000000  0.000000  0.000000      1.000000
 
 Following cartesian coordinates:
            Coordinates               Weight
  0.000000  0.000000  0.000000      1.000000
 
 
 Subroutine IBZKPT_HF returns following result:
 ==============================================
 
 Found      1 k-points in 1st BZ
 the following      1 k-points will be used (e.g. in the exchange kernel)
 Following reciprocal coordinates:   # in IRBZ
  0.000000  0.000000  0.000000    1.00000000   1 t-inv F


--------------------------------------------------------------------------------------------------------




 Dimension of arrays:
   k-points           NKPTS =      1   k-points in BZ     NKDIM =      1   number of bands    NBANDS=    288
   number of dos      NEDOS =    301   number of ions     NIONS =    127
   non local maximal  LDIM  =      8   non local SUM 2l+1 LMDIM =     22
   total plane-waves  NPLWV = 100000
   max r-space proj   IRMAX =      1   max aug-charges    IRDMAX=   1612
   dimension x,y,z NGX =    50 NGY =   50 NGZ =   40
   dimension x,y,z NGXF=   100 NGYF=  100 NGZF=   80
   support grid    NGXF=   100 NGYF=  100 NGZF=   80
   ions per type =             126   1
 NGX,Y,Z   is equivalent  to a cutoff of   8.25,  8.25,  8.07 a.u.
 NGXF,Y,Z  is equivalent  to a cutoff of  16.49, 16.49, 16.14 a.u.


 I would recommend the setting:
   dimension x,y,z NGX =    49 NGY =   49 NGZ =   40
 SYSTEM =  unknown system                          
 POSCAR =  C                                       

 Startparameter for this run:
   NWRITE =      2    write-flag & timer
   PREC   = normal    normal or accurate (medium, high low for compatibility)
   ISTART =      0    job   : 0-new  1-cont  2-samecut
   ICHARG =      2    charge: 1-file 2-atom 10-const
   ISPIN  =      2    spin polarized calculation?
   LNONCOLLINEAR =      F non collinear calculations
   LSORBIT =      F    spin-orbit coupling
   INIWAV =      1    electr: 0-lowe 1-rand  2-diag
   LASPH  =      F    aspherical Exc in radial PAW
   METAGGA=      F    non-selfconsistent MetaGGA calc.

 Electronic Relaxation 1
   ENCUT  =  400.0 eV  29.40 Ry    5.42 a.u.  16.44 16.44 13.44*2*pi/ulx,y,z
   ENINI  =  400.0     initial cutoff
   ENAUG  = 1213.9 eV  augmentation charge cutoff
   NELM   =     60;   NELMIN=  2; NELMDL= -5     # of ELM steps 
   EDIFF  = 0.1E-03   stopping-criterion for ELM
   LREAL  =      F    real-space projection
   NLSPLINE    = F    spline interpolate recip. space projectors
   LCOMPAT=      F    compatible to vasp.4.4
   GGA_COMPAT  = T    GGA compatible to vasp.4.4-vasp.4.6
   LMAXPAW     = -100 max onsite density
   LMAXMIX     =    2 max onsite mixed and CHGCAR
   VOSKOWN=      0    Vosko Wilk Nusair interpolation
   ROPT   =    0.00000   0.00000
 Ionic relaxation
   EDIFFG = 0.1E-02   stopping-criterion for IOM
   NSW    =      0    number of steps for IOM
   NBLOCK =      1;   KBLOCK =      1    inner block; outer block 
   IBRION =     -1    ionic relax: 0-MD 1-quasi-New 2-CG
   NFREE  =      0    steps in history (QN), initial steepest desc. (CG)
   ISIF   =      0    stress and relaxation
   IWAVPR =     10    prediction:  0-non 1-charg 2-wave 3-comb
   ISYM   =      3    0-nonsym 1-usesym 2-fastsym
   LCORR  =      T    Harris-Foulkes like correction to forces

   POTIM  = 0.5000    time-step for ionic-motion
   TEIN   =    0.0    initial temperature
   TEBEG  =    0.0;   TEEND  =   0.0 temperature during run
   SMASS  =  -3.00    Nose mass-parameter (am)
   estimated Nose-frequenzy (Omega)   =  0.10E-29 period in steps =****** mass=  -0.232E-26a.u.
   SCALEE = 1.0000    scale energy and forces
   NPACO  =    256;   APACO  = 16.0  distance and # of slots for P.C.
   PSTRESS=    0.0 pullay stress

  Mass of Ions in am
   POMASS =  12.01 14.00
  Ionic Valenz
   ZVAL   =   4.00  5.00
  Atomic Wigner-Seitz radii
   RWIGS  =  -1.00 -1.00
  virtual crystal weights 
   VCA    =   1.00  1.00
   NELECT =     510.0000    total number of electrons
   NUPDOWN=      -1.0000    fix difference up-down

 DOS related values:
   EMIN   =  10.00;   EMAX   =-10.00  energy-range for DOS
   EFERMI =   0.00
   ISMEAR =    -2;   SIGMA  =   0.00  broadening in eV -4-tet -1-fermi 0-gaus

 Electronic relaxation 2 (details)
   IALGO  =     38    algorithm
   LDIAG  =      T    sub-space diagonalisation (order eigenvalues)
   LSUBROT=      F    optimize rotation matrix (better conditioning)
   TURBO    =      0    0=normal 1=particle mesh
   IRESTART =      0    0=no restart 2=restart with 2 vectors
   NREBOOT  =      0    no. of reboots
   NMIN     =      0    reboot dimension
   EREF     =   0.00    reference energy to select bands
   IMIX   =      1    mixing-type and parameters
     AMIX     =   0.40;   BMIX     =  1.00
     AMIX_MAG =   1.60;   BMIX_MAG =  1.00
     AMIN     =   0.10
     WC   =   100.;   INIMIX=   1;  MIXPRE=   1;  MAXMIX= -45

 Intra band minimization:
   WEIMIN = 0.0000     energy-eigenvalue tresh-hold
   EBREAK =  0.87E-07  absolut break condition
   DEPER  =   0.30     relativ break condition  

   TIME   =   0.40     timestep for ELM

  volume/ion in A,a.u.               =       5.71        38.53
  Fermi-wavevector in a.u.,A,eV,Ry     =   1.455924  2.751297 28.840454  2.119714
  Thomas-Fermi vector in A             =   2.572902
 
 Write flags
   LWAVE  =      T    write WAVECAR
   LCHARG =      T    write CHGCAR
   LVTOT  =      F    write LOCPOT, total local potential
   LVHAR  =      F    write LOCPOT, Hartree potential only
   LELF   =      F    write electronic localiz. function (ELF)
   LORBIT =      0    0 simple, 1 ext, 2 COOP (PROOUT)


 Dipole corrections
   LMONO  =      F    monopole corrections only (constant potential shift)
   LDIPOL =      F    correct potential (dipole corrections)
   IDIPOL =      0    1-x, 2-y, 3-z, 4-all directions 
   EPSILON=  1.0000000 bulk dielectric constant

 Exchange correlation treatment:
   GGA     =    --    GGA type
   LEXCH   =     8    internal setting for exchange type
   VOSKOWN=      0    Vosko Wilk Nusair interpolation
   EXXOEP  =     0    0=HF, 1=EXX-LHF (local Hartree Fock) 2=EXX OEP
   LHFCALC =     T    Hartree Fock is set to
   LSYMGRAD=     F    symmetrize gradient (conserves proper symmetry)
   PRECFOCK=normal    Normal, Fast or Accurate (Low or Medium for compatibility)
   LRHFCALC=     F    long range Hartree Fock
   LRSCOR  =     F    long range correlation only (use DFT for short range part)
   LTHOMAS =     F    Thomas Fermi screening in HF
   LMODELHF=     F    short range full HF, long range fraction AEXX
   ENCUT4O =  -1.0   cutoff for four orbital integrals eV
   LMAXFOCK=     4    L truncation for augmentation on plane wave grid
   LMAXFOCKAE=  -1    L truncation for all-electron charge restoration on plane wave grid
   NMAXFOCKAE=   1    number of basis functions for all-electron charge restoration
   LFOCKAEDFT=     F  apply the AE augmentation even for DFT
   NKREDX  =     1    reduce k-point grid by
   NKREDY  =     1    reduce k-point grid by
   NKREDZ  =     1    reduce k-point grid by
   SHIFTRED=     F    shift reduced grid of Gamma
   HFKIDENT=     F    idential grid for each k-point
   ODDONLY =     F    use only odd q-grid points
   EVENONLY=     F    use only even q-grid points
   HFALPHA =   -1.0000 decay constant for conv. correction
   MCALPHA =    0.0000 extent of test-charge in conv. correction in multipole expansion
   AEXX    =    0.0000 exact exchange contribution
   HFSCREEN=    0.0000 screening length (either q_TF or 0.3 A-1)
   HFSCREENC=   0.0000 screening length for correlation (either q_TF or 0.3 A-1)
   HFRCUT  =    0.0000 spherical cutoff for potential kernel
   ALDAX   =    1.0000 LDA exchange part
   AGGAX   =    1.0000 GGA exchange part
   ALDAC   =    1.0000 LDA correlation
   AGGAC   =    1.0000 GGA correlation
   NBANDSGWLOW=     1    first orbital included in HF term
   ENCUTFOCK=  -1.0 apply spherical cutoff to Coloumb kernel
 Linear response parameters
   LEPSILON=     F    determine dielectric tensor
   LRPA    =     F    only Hartree local field effects (RPA)
   LNABLA  =     F    use nabla operator in PAW spheres
   LVEL    =     F    velocity operator in full k-point grid
   LINTERFAST=   F  fast interpolation
   KINTER  =     0    interpolate to denser k-point grid
   CSHIFT  =0.1000    complex shift for real part using Kramers Kronig
   OMEGAMAX=  -1.0    maximum frequency
   DEG_THRESHOLD= 0.2000000E-02 threshold for treating states as degnerate
   RTIME   =    0.100 relaxation time in fs

 Orbital magnetization related:
   ORBITALMAG=     F  switch on orbital magnetization
   LCHIMAG   =     F  perturbation theory with respect to B field
   DQ        =  0.001000  dq finite difference perturbation B field



--------------------------------------------------------------------------------------------------------


 Static calculation
 charge density and potential will be updated during run
 spin polarized calculation
 Variant of blocked Davidson
 Davidson routine will perform the subspace rotation
 perform sub-space diagonalisation
    after iterative eigenvector-optimisation
 Kerker-like  mixing scheme
 using additional bands           33
 reciprocal scheme for non local part
 use partial core corrections
 calculate Harris-corrections to forces 
   (improved forces if not selfconsistent)
 use gradient corrections 
 use of overlap-Matrix (Vanderbilt PP)
 partial occupancies read from INCAR or WAVECAR (fixed during run)


--------------------------------------------------------------------------------------------------------


  energy-cutoff  :      400.00
  volume of cell :      725.07
      direct lattice vectors                 reciprocal lattice vectors
    10.079999924  0.000000000  0.000000000     0.099206350  0.057276813  0.000000000
    -5.039999962  8.729536004  0.000000000     0.000000000  0.114553626  0.000000000
     0.000000000  0.000000000  8.239999771     0.000000000  0.000000000  0.121359227

  length of vectors
    10.079999924 10.079999924  8.239999771     0.114553626  0.114553626  0.121359227


 
 k-points in units of 2pi/SCALE and weight: Automatically generated mesh            
   0.00000000  0.00000000  0.00000000       1.000
 
 k-points in reciprocal lattice and weights: Automatically generated mesh            
   0.00000000  0.00000000  0.00000000       1.000
 
 position of ions in fractional coordinates (direct lattice) 
   0.08349980  0.16674990  0.03068742
   0.16771462  0.08433916  0.46904150
   0.16684893  0.08346975  0.28110950
   0.08347429  0.16673715  0.21876883
   0.08364518  0.16682259  0.53100849
   0.16670807  0.08308924  0.96861964
   0.16611270  0.08241148  0.78066918
   0.08339648  0.16669824  0.71883237
   0.08327686  0.41655372  0.03092973
   0.16771462  0.33337545  0.46904150
   0.16684893  0.33337918  0.28110950
   0.08328016  0.41656032  0.21914243
   0.08340592  0.41681184  0.53113814
   0.16670807  0.33361883  0.96861964
   0.16611270  0.33370122  0.78066918
   0.08338573  0.41677147  0.71880970
   0.08315004  0.66657502  0.03090960
   0.16666460  0.58332921  0.46913799
   0.16666595  0.58333191  0.28110004
   0.08322210  0.66661105  0.21902410
   0.08309734  0.66654867  0.53141705
   0.16665065  0.58330131  0.96893714
   0.16666772  0.58333546  0.78099788
   0.08291068  0.66645535  0.71924910
   0.08327686  0.91672315  0.03092973
   0.16666460  0.83333539  0.46913799
   0.16666595  0.83333404  0.28110004
   0.08328016  0.91671985  0.21914243
   0.08340592  0.91659409  0.53113814
   0.16665065  0.83334934  0.96893714
   0.16666772  0.83333226  0.78099788
   0.08338573  0.91661427  0.71880970
   0.33329330  0.16641977  0.03133908
   0.41693254  0.08386509  0.46964360
   0.41673490  0.08346981  0.28148453
   0.33323349  0.16645578  0.21861096
   0.33570355  0.16866482  0.53186608
   0.41682956  0.08365914  0.96892004
   0.41715233  0.08430468  0.78126831
   0.33495650  0.16895776  0.71988436
   0.33329330  0.41687354  0.03133908
   0.42145284  0.33572642  0.46756937
   0.41629485  0.33314743  0.27926691
   0.33323349  0.41677772  0.21861096
   0.33570355  0.41703873  0.53186608
   0.41551502  0.33275751  0.96735809
   0.40371278  0.32685639  0.78771302
   0.33495650  0.41599875  0.71988436
   0.33342499  0.66657502  0.03090960
   0.41693254  0.58306745  0.46964360
   0.41673490  0.58326509  0.28148453
   0.33338895  0.66661105  0.21902410
   0.33345134  0.66654867  0.53141705
   0.41682956  0.58317042  0.96892004
   0.41715233  0.58284765  0.78126831
   0.33354466  0.66645535  0.71924910
   0.33342499  0.91684997  0.03090960
   0.41667078  0.83333539  0.46913799
   0.41666808  0.83333404  0.28110004
   0.33338895  0.91677791  0.21902410
   0.33345134  0.91690267  0.53141705
   0.41669867  0.83334934  0.96893714
   0.41666452  0.83333226  0.78099788
   0.33354466  0.91708932  0.71924910
   0.58312647  0.16641977  0.03133908
   0.66662453  0.08433916  0.46904150
   0.66662081  0.08346975  0.28110950
   0.58322229  0.16645578  0.21861096
   0.58296127  0.16866482  0.53186608
   0.66638116  0.08308924  0.96861964
   0.66629877  0.08241148  0.78066918
   0.58400126  0.16895776  0.71988436
   0.58333334  0.41666667  0.02999196
   0.66427356  0.33572642  0.46756937
   0.66685256  0.33314743  0.27926691
   0.58333334  0.41666667  0.21619427
   0.66724248  0.33275751  0.96735809
   0.67314360  0.32685639  0.78771302
   0.58312647  0.66670671  0.03133908
   0.66427356  0.57854714  0.46756937
   0.66685256  0.58370513  0.27926691
   0.58322229  0.66676652  0.21861096
   0.58296127  0.66429646  0.53186608
   0.66724248  0.58448497  0.96735809
   0.67314360  0.59628721  0.78771302
   0.58400126  0.66504351  0.71988436
   0.58344629  0.91672315  0.03092973
   0.66662453  0.83228537  0.46904150
   0.66662081  0.83315106  0.28110950
   0.58343969  0.91671985  0.21914243
   0.58318817  0.91659409  0.53113814
   0.66638116  0.83329191  0.96861964
   0.66629877  0.83388729  0.78066918
   0.58322854  0.91661427  0.71880970
   0.83325010  0.16674990  0.03068742
   0.91666666  0.08333333  0.46871713
   0.91666666  0.08333333  0.28085625
   0.83326286  0.16673715  0.21876883
   0.83317741  0.16682259  0.53100849
   0.91666666  0.08333333  0.96870887
   0.91666666  0.08333333  0.78064220
   0.83330176  0.16669824  0.71883237
   0.83358024  0.41687354  0.03133908
   0.91566082  0.33337545  0.46904150
   0.91653023  0.33337918  0.28110950
   0.83354423  0.41677772  0.21861096
   0.83133519  0.41703873  0.53186608
   0.91691074  0.33361883  0.96861964
   0.91758851  0.33370122  0.78066918
   0.83104225  0.41599875  0.71988436
   0.83358024  0.66670671  0.03133908
   0.91613489  0.58306745  0.46964360
   0.91653018  0.58326509  0.28148453
   0.83354423  0.66676652  0.21861096
   0.83133519  0.66429646  0.53186608
   0.91634085  0.58317042  0.96892004
   0.91569531  0.58284765  0.78126831
   0.83104225  0.66504351  0.71988436
   0.83325010  0.91650021  0.03068742
   0.91566082  0.83228537  0.46904150
   0.91653023  0.83315106  0.28110950
   0.83326286  0.91652572  0.21876883
   0.83317741  0.91635483  0.53100849
   0.91691074  0.83329191  0.96861964
   0.91758851  0.83388729  0.78066918
   0.83330176  0.91660353  0.71883237
   0.58333334  0.41666667  0.51935591
 
 position of ions in cartesian coordinates  (Angst):
   0.00125845  1.45564928  0.25286430
   1.26549395  0.73624177  3.86490184
   1.26114964  0.72865221  2.31634223
   0.00106559  1.45553793  1.80265514
   0.00235753  1.45628383  4.37550985
   1.26164756  0.72533053  7.98142563
   1.25906212  0.71941395  6.43271383
   0.00047738  1.45519833  5.92317860
  -1.25999999  3.63632069  0.25486093
   0.01035106  2.91021302  3.86490184
   0.00160616  2.91024552  2.31634223
  -1.25999999  3.63637827  1.80573360
  -1.25999999  3.63857393  4.37657811
  -0.00102155  2.91233758  7.98142563
  -0.00743817  2.91305681  6.43271383
  -1.25999999  3.63822153  5.92299179
  -2.52138573  5.81889065  0.25469509
  -1.26000007  5.09219333  3.86569690
  -1.26000007  5.09221689  2.31626427
  -2.52084094  5.81920519  1.80475852
  -2.52178414  5.81866063  4.37887633
  -1.26000007  5.09194982  7.98404184
  -1.26000007  5.09224792  6.43542238
  -2.52319524  5.81784593  5.92661239
  -3.78085389  8.00256773  0.25486093
  -2.52003120  7.27463128  3.86569690
  -2.52001079  7.27461949  2.31626427
  -3.78080402  8.00253893  1.80573360
  -3.77890253  8.00144110  4.37657811
  -2.52024209  7.27475303  7.98404184
  -2.51998392  7.27460398  6.43542238
  -3.77920772  8.00161730  5.92299179
   2.52084079  1.45276733  0.25823403
   3.77999990  0.73210334  3.86986315
   3.77999990  0.72865267  2.31943245
   2.52005641  1.45308171  1.80135422
   2.53382103  1.47236561  4.38257640
   3.77999990  0.73030544  7.98390090
   3.77999990  0.73594073  6.43765072
   2.52481441  1.47492283  5.93184695
   1.25855378  3.63911257  0.25823403
   2.55618348  2.93073589  3.85277154
   2.51718908  2.90822246  2.30115927
   1.25843385  3.63827608  1.80135422
   1.28201651  3.64055464  4.38257640
   2.51129353  2.90481866  7.97103041
   2.42206859  2.85330462  6.49075507
   1.27972782  3.63147607  5.93184695
   0.00138575  5.81889065  0.25469509
   1.26402004  5.08990827  3.86986315
   1.26103168  5.09163360  2.31943245
   0.00084095  5.81920519  1.80475852
   0.00178416  5.81866063  4.37887633
   1.26246302  5.09080722  7.98390090
   1.26734332  5.08798957  6.43765072
   0.00319525  5.81784593  5.92661239
  -1.25999999  8.00367484  0.25469509
   0.00003107  7.27463128  3.86569690
   0.00001066  7.27461949  2.31626427
  -1.25999999  8.00304577  1.80475852
  -1.25999999  8.00413488  4.37887633
   0.00024196  7.27475303  7.98404184
  -0.00001621  7.27460398  6.43542238
  -1.25999999  8.00576428  5.92661239
   5.03915915  1.45276733  0.25823403
   6.29450584  0.73624177  3.86490184
   6.29885015  0.72865221  2.31634223
   5.03994354  1.45308171  1.80135422
   5.02617891  1.47236561  4.38257640
   6.29835223  0.72533053  7.98142563
   6.30093767  0.71941395  6.43271383
   5.03518553  1.47492283  5.93184695
   3.77999997  3.63730671  0.24713378
   5.00381631  2.93073589  3.85277154
   5.04281071  2.90822246  2.30115927
   3.77999997  3.63730671  1.78144077
   5.04870627  2.90481866  7.97103041
   5.13793121  2.85330462  6.49075507
   2.51771296  5.82004024  0.25823403
   3.77999990  5.05044810  3.85277154
   3.77999990  5.09547495  2.30115927
   2.51837741  5.82056235  1.80135422
   2.52819545  5.79899988  4.38257640
   3.77999990  5.10228255  7.97103041
   3.77999990  5.20531064  6.49075507
   2.53491338  5.80552123  5.93184695
   1.26085391  8.00256773  0.25486093
   2.52485701  7.26546508  3.86490184
   2.52045641  7.27302214  2.31634223
   1.26080404  8.00253893  1.80573360
   1.25890254  8.00144110  4.37657811
   2.51733079  7.27425177  7.98142563
   2.51349960  7.27944912  6.43271383
   1.25920773  8.00161730  5.92299179
   7.55874149  1.45564928  0.25286430
   8.81999986  0.72746129  3.86222901
   8.81999986  0.72746129  2.31425543
   7.55893435  1.45553793  1.80265514
   7.55764241  1.45628383  4.37550985
   8.81999986  0.72746129  7.98216090
   8.81999986  0.72746129  6.43249158
   7.55952256  1.45519833  5.92317860
   6.30144616  3.63911257  0.25823403
   7.54964873  2.91021302  3.86490184
   7.55839363  2.91024552  2.31634223
   6.30156610  3.63827608  1.80135422
   6.27798343  3.64055464  4.38257640
   7.56102134  2.91233758  7.98142563
   7.56743796  2.91305681  6.43271383
   6.28027212  3.63147607  5.93184695
   5.04228698  5.82004024  0.25823403
   6.29597975  5.08990827  3.86986315
   6.29896811  5.09163360  2.31943245
   5.04162253  5.82056235  1.80135422
   5.03180449  5.79899988  4.38257640
   6.29753677  5.09080722  7.98390090
   6.29265647  5.08798957  6.43765072
   5.02508656  5.80552123  5.93184695
   3.77999997  8.00062158  0.25286430
   5.03514278  7.26546508  3.86490184
   5.03954338  7.27302214  2.31634223
   3.77999997  8.00084427  1.80265514
   3.77999997  7.99935247  4.37550985
   5.04266900  7.27425177  7.98142563
   5.04650019  7.27944912  6.43271383
   3.77999997  8.00152348  5.92317860
   3.77999997  3.63730671  4.27949261
 


--------------------------------------------------------------------------------------------------------


 use seriel FFT for wavefunctions x direction half grid
 k-point  1 :   0.0000 0.0000 0.0000  plane waves:    6590

 maximum and minimum number of plane-waves per node :      6590     6590

 maximum number of plane-waves:      6590
 maximum index in each direction: 
   IXMAX=   16   IYMAX=   14   IZMAX=   13
   IXMIN=    0   IYMIN=  -16   IZMIN=  -13

 WARNING: aliasing errors must be expected set NGX to  66 to avoid them
 WARNING: aliasing errors must be expected set NGY to  62 to avoid them
 WARNING: aliasing errors must be expected set NGZ to  54 to avoid them
 aliasing errors are usually negligible using standard VASP settings
 and one can safely disregard these warnings

 serial   3D FFT for wavefunctions
 parallel 3D FFT for charge:
    minimum data exchange during FFTs selected (reduces bandwidth)

 
 Radii for the augmentation spheres in the non-local exchange
 for species   1 augmentation radius   0.820 (default was   0.656)
       energy cutoff for augmentation   1600.0
 for species   2 augmentation radius   0.834 (default was   0.667)
       energy cutoff for augmentation   1600.0
  SETUP_FOCK is finished

 total amount of memory used by VASP on root node   230917. kBytes
========================================================================

   base      :      30000. kBytes
   nonl-proj :      15710. kBytes
   fftplans  :      27920. kBytes
   grid      :      73360. kBytes
   one-center:       2950. kBytes
   HF        :        193. kBytes
   nonlr-proj:       8918. kBytes
   wavefun   :      71866. kBytes
 
     INWAV:  cpu time    0.0000: real time    0.0000
 initial charge density was supplied:
 charge density of overlapping atoms calculated
 number of electron     509.0000000 magnetization     127.0000000
 keeping initial charge density in first step


--------------------------------------------------------------------------------------------------------


 Maximum index for augmentation-charges         1362 (set IRDMAX)


--------------------------------------------------------------------------------------------------------


 FEWALD executed in parallel
    FEWALD:  cpu time    0.0600: real time    0.0615


----------------------------------------- Iteration    1(   1)  ---------------------------------------


    POTLOK:  cpu time    0.6720: real time    0.6732
    SETDIJ:  cpu time    0.8920: real time    0.8908
     EDDAV:  cpu time   32.9480: real time   32.9612
       DOS:  cpu time    0.0000: real time    0.0001
    --------------------------------------------
      LOOP:  cpu time   34.5120: real time   34.5268

 eigenvalue-minimisations  :  1152
 total energy-change (2. order) : 0.4844151E+04  (-0.2665159E+05)
 number of electron     509.0000000 magnetization     127.0000000
 augmentation part      509.0000000 magnetization     127.0000000

 Free energy of the ion-electron system (eV)
  ---------------------------------------------------
  alpha Z        PSCENC =       343.12918115
  Ewald energy   TEWEN  =    -22001.56270897
  -Hartree energ DENC   =     -1255.34093391
  -exchange      EXHF   =         0.00000000
  -V(xc)+E(xc)   XCENC  =      1005.07880440
  PAW double counting   =     14624.74813730   -13934.22916061
  entropy T*S    EENTRO =         0.00000000
  eigenvalues    EBANDS =      7259.82246226
  atomic energy  EATOM  =     18802.50563071
  Solvation  Ediel_sol  =         0.00000000
  ---------------------------------------------------
  free energy    TOTEN  =      4844.15141233 eV

  energy without entropy =     4844.15141233  energy(sigma->0) =     4844.15141233
  exchange ACFDT corr.  =         0.00000000  see jH, gK, PRB 81, 115126


--------------------------------------------------------------------------------------------------------




----------------------------------------- Iteration    1(   2)  ---------------------------------------


     EDDAV:  cpu time   44.8040: real time   44.8226
       DOS:  cpu time    0.0000: real time    0.0001
    --------------------------------------------
      LOOP:  cpu time   44.8040: real time   44.8252

 eigenvalue-minimisations  :  1688
 total energy-change (2. order) :-0.5338331E+04  (-0.5096285E+04)
 number of electron     509.0000000 magnetization     127.0000000
 augmentation part      509.0000000 magnetization     127.0000000

 Free energy of the ion-electron system (eV)
  ---------------------------------------------------
  alpha Z        PSCENC =       343.12918115
  Ewald energy   TEWEN  =    -22001.56270897
  -Hartree energ DENC   =     -1255.34093391
  -exchange      EXHF   =         0.00000000
  -V(xc)+E(xc)   XCENC  =      1005.07880440
  PAW double counting   =     14624.74813730   -13934.22916061
  entropy T*S    EENTRO =         0.00000000
  eigenvalues    EBANDS =      1921.49122227
  atomic energy  EATOM  =     18802.50563071
  Solvation  Ediel_sol  =         0.00000000
  ---------------------------------------------------
  free energy    TOTEN  =      -494.17982767 eV

  energy without entropy =     -494.17982767  energy(sigma->0) =     -494.17982767
  exchange ACFDT corr.  =         0.00000000  see jH, gK, PRB 81, 115126


--------------------------------------------------------------------------------------------------------




----------------------------------------- Iteration    1(   3)  ---------------------------------------


     EDDAV:  cpu time   37.9280: real time   37.9422
       DOS:  cpu time    0.0000: real time    0.0001
    --------------------------------------------
      LOOP:  cpu time   37.9280: real time   37.9447

 eigenvalue-minimisations  :  1376
 total energy-change (2. order) :-0.5932623E+03  (-0.5841392E+03)
 number of electron     509.0000000 magnetization     127.0000000
 augmentation part      509.0000000 magnetization     127.0000000

 Free energy of the ion-electron system (eV)
  ---------------------------------------------------
  alpha Z        PSCENC =       343.12918115
  Ewald energy   TEWEN  =    -22001.56270897
  -Hartree energ DENC   =     -1255.34093391
  -exchange      EXHF   =         0.00000000
  -V(xc)+E(xc)   XCENC  =      1005.07880440
  PAW double counting   =     14624.74813730   -13934.22916061
  entropy T*S    EENTRO =         0.00000000
  eigenvalues    EBANDS =      1328.22893697
  atomic energy  EATOM  =     18802.50563071
  Solvation  Ediel_sol  =         0.00000000
  ---------------------------------------------------
  free energy    TOTEN  =     -1087.44211296 eV

  energy without entropy =    -1087.44211296  energy(sigma->0) =    -1087.44211296
  exchange ACFDT corr.  =         0.00000000  see jH, gK, PRB 81, 115126


--------------------------------------------------------------------------------------------------------




----------------------------------------- Iteration    1(   4)  ---------------------------------------


     EDDAV:  cpu time   40.0320: real time   40.0487
       DOS:  cpu time    0.0000: real time    0.0001
    --------------------------------------------
      LOOP:  cpu time   40.0320: real time   40.0510

 eigenvalue-minimisations  :  1472
 total energy-change (2. order) :-0.2167700E+02  (-0.2160913E+02)
 number of electron     509.0000000 magnetization     127.0000000
 augmentation part      509.0000000 magnetization     127.0000000

 Free energy of the ion-electron system (eV)
  ---------------------------------------------------
  alpha Z        PSCENC =       343.12918115
  Ewald energy   TEWEN  =    -22001.56270897
  -Hartree energ DENC   =     -1255.34093391
  -exchange      EXHF   =         0.00000000
  -V(xc)+E(xc)   XCENC  =      1005.07880440
  PAW double counting   =     14624.74813730   -13934.22916061
  entropy T*S    EENTRO =         0.00000000
  eigenvalues    EBANDS =      1306.55194116
  atomic energy  EATOM  =     18802.50563071
  Solvation  Ediel_sol  =         0.00000000
  ---------------------------------------------------
  free energy    TOTEN  =     -1109.11910878 eV

  energy without entropy =    -1109.11910878  energy(sigma->0) =    -1109.11910878
  exchange ACFDT corr.  =         0.00000000  see jH, gK, PRB 81, 115126


--------------------------------------------------------------------------------------------------------




----------------------------------------- Iteration    1(   5)  ---------------------------------------


     EDDAV:  cpu time   41.4800: real time   41.4938
       DOS:  cpu time    0.0000: real time    0.0001
    CHARGE:  cpu time    0.8240: real time    0.8238
    MIXING:  cpu time    0.0120: real time    0.0123
    --------------------------------------------
      LOOP:  cpu time   42.3160: real time   42.3318

 eigenvalue-minimisations  :  1536
 total energy-change (2. order) :-0.5787923E+00  (-0.5774392E+00)
 number of electron     509.3999656 magnetization     -73.0000003
 augmentation part        7.3382092 magnetization     -75.0104412

 Free energy of the ion-electron system (eV)
  ---------------------------------------------------
  alpha Z        PSCENC =       343.12918115
  Ewald energy   TEWEN  =    -22001.56270897
  -Hartree energ DENC   =     -1255.34093391
  -exchange      EXHF   =         0.00000000
  -V(xc)+E(xc)   XCENC  =      1005.07880440
  PAW double counting   =     14624.74813730   -13934.22916061
  entropy T*S    EENTRO =         0.00000000
  eigenvalues    EBANDS =      1305.97314881
  atomic energy  EATOM  =     18802.50563071
  Solvation  Ediel_sol  =         0.00000000
  ---------------------------------------------------
  free energy    TOTEN  =     -1109.69790112 eV

  energy without entropy =    -1109.69790112  energy(sigma->0) =    -1109.69790112
  exchange ACFDT corr.  =         0.00000000  see jH, gK, PRB 81, 115126


--------------------------------------------------------------------------------------------------------




----------------------------------------- Iteration    1(   6)  ---------------------------------------


    POTLOK:  cpu time    0.6520: real time    0.6517
    SETDIJ:  cpu time    0.8800: real time    0.8827
     EDDAV:  cpu time   36.0920: real time   36.1069
       DOS:  cpu time    0.0000: real time    0.0001
    CHARGE:  cpu time    0.7520: real time    0.7524
    MIXING:  cpu time    0.0120: real time    0.0120
    --------------------------------------------
      LOOP:  cpu time   38.3880: real time   38.4080

 eigenvalue-minimisations  :  1304
 total energy-change (2. order) :-0.1537257E+01  (-0.2904333E+01)
 number of electron     509.6399461 magnetization      46.9999977
 augmentation part        7.0264534 magnetization      45.2972636

 Free energy of the ion-electron system (eV)
  ---------------------------------------------------
  alpha Z        PSCENC =       343.12918115
  Ewald energy   TEWEN  =    -22001.56270897
  -Hartree energ DENC   =     -1500.16398156
  -exchange      EXHF   =         0.00000000
  -V(xc)+E(xc)   XCENC  =      1014.51097128
  PAW double counting   =     26949.20356642   -26267.58153012
  entropy T*S    EENTRO =         0.00000000
  eigenvalues    EBANDS =      1548.72371330
  atomic energy  EATOM  =     18802.50563071
  Solvation  Ediel_sol  =         0.00000000
  ---------------------------------------------------
  free energy    TOTEN  =     -1111.23515779 eV

  energy without entropy =    -1111.23515779  energy(sigma->0) =    -1111.23515779
  exchange ACFDT corr.  =         0.00000000  see jH, gK, PRB 81, 115126


--------------------------------------------------------------------------------------------------------




----------------------------------------- Iteration    1(   7)  ---------------------------------------


    POTLOK:  cpu time    0.6520: real time    0.6546
    SETDIJ:  cpu time    0.8000: real time    0.7972
     EDDAV:  cpu time   35.7160: real time   35.7297
       DOS:  cpu time    0.0000: real time    0.0001
    CHARGE:  cpu time    0.8240: real time    0.8262
    MIXING:  cpu time    0.0120: real time    0.0123
    --------------------------------------------
      LOOP:  cpu time   38.0040: real time   38.0220

 eigenvalue-minimisations  :  1288
 total energy-change (2. order) :-0.3263109E+01  (-0.1725332E+01)
 number of electron     509.7839350 magnetization     -24.9999975
 augmentation part        6.9144698 magnetization     -26.9675646

 Free energy of the ion-electron system (eV)
  ---------------------------------------------------
  alpha Z        PSCENC =       343.12918115
  Ewald energy   TEWEN  =    -22001.56270897
  -Hartree energ DENC   =     -1645.41573733
  -exchange      EXHF   =         0.00000000
  -V(xc)+E(xc)   XCENC  =      1024.90355283
  PAW double counting   =     36146.96951994   -35469.98222875
  entropy T*S    EENTRO =         0.00000000
  eigenvalues    EBANDS =      1684.95452403
  atomic energy  EATOM  =     18802.50563071
  Solvation  Ediel_sol  =         0.00000000
  ---------------------------------------------------
  free energy    TOTEN  =     -1114.49826639 eV

  energy without entropy =    -1114.49826639  energy(sigma->0) =    -1114.49826639
  exchange ACFDT corr.  =         0.00000000  see jH, gK, PRB 81, 115126


--------------------------------------------------------------------------------------------------------




----------------------------------------- Iteration    1(   8)  ---------------------------------------


    POTLOK:  cpu time    0.6600: real time    0.6602
    SETDIJ:  cpu time    0.8880: real time    0.8855
     EDDAV:  cpu time   35.5560: real time   35.5699
       DOS:  cpu time    0.0000: real time    0.0001
    CHARGE:  cpu time    0.8240: real time    0.8256
    MIXING:  cpu time    0.0120: real time    0.0123
    --------------------------------------------
      LOOP:  cpu time   37.9400: real time   37.9565

 eigenvalue-minimisations  :  1280
 total energy-change (2. order) :-0.2383886E+01  (-0.7918220E+00)
 number of electron     509.8703287 magnetization      18.1999973
 augmentation part        6.8577045 magnetization      16.3719717

 Free energy of the ion-electron system (eV)
  ---------------------------------------------------
  alpha Z        PSCENC =       343.12918115
  Ewald energy   TEWEN  =    -22001.56270897
  -Hartree energ DENC   =     -1726.20855649
  -exchange      EXHF   =         0.00000000
  -V(xc)+E(xc)   XCENC  =      1031.14590916
  PAW double counting   =     42290.88635117   -41616.50224927
  entropy T*S    EENTRO =         0.00000000
  eigenvalues    EBANDS =      1759.72429000
  atomic energy  EATOM  =     18802.50563071
  Solvation  Ediel_sol  =         0.00000000
  ---------------------------------------------------
  free energy    TOTEN  =     -1116.88215254 eV

  energy without entropy =    -1116.88215254  energy(sigma->0) =    -1116.88215254
  exchange ACFDT corr.  =         0.00000000  see jH, gK, PRB 81, 115126


--------------------------------------------------------------------------------------------------------




----------------------------------------- Iteration    1(   9)  ---------------------------------------


    POTLOK:  cpu time    0.6280: real time    0.6290
    SETDIJ:  cpu time    0.8080: real time    0.8065
     EDDAV:  cpu time   34.4760: real time   34.4889
       DOS:  cpu time    0.0000: real time    0.0001
    CHARGE:  cpu time    0.7400: real time    0.7431
    MIXING:  cpu time    0.0120: real time    0.0111
    --------------------------------------------
      LOOP:  cpu time   36.6640: real time   36.6809

 eigenvalue-minimisations  :  1256
 total energy-change (2. order) :-0.1017482E+01  (-0.3643447E+00)
 number of electron     509.9221652 magnetization      -7.7199983
 augmentation part        6.8457426 magnetization      -9.6322783

 Free energy of the ion-electron system (eV)
  ---------------------------------------------------
  alpha Z        PSCENC =       343.12918115
  Ewald energy   TEWEN  =    -22001.56270897
  -Hartree energ DENC   =     -1769.84575442
  -exchange      EXHF   =         0.00000000
  -V(xc)+E(xc)   XCENC  =      1035.56715183
  PAW double counting   =     46189.04837016   -45516.08768253
  entropy T*S    EENTRO =         0.00000000
  eigenvalues    EBANDS =      1799.34617782
  atomic energy  EATOM  =     18802.50563071
  Solvation  Ediel_sol  =         0.00000000
  ---------------------------------------------------
  free energy    TOTEN  =     -1117.89963425 eV

  energy without entropy =    -1117.89963425  energy(sigma->0) =    -1117.89963425
  exchange ACFDT corr.  =         0.00000000  see jH, gK, PRB 81, 115126


--------------------------------------------------------------------------------------------------------




----------------------------------------- Iteration    1(  10)  ---------------------------------------


    POTLOK:  cpu time    0.6000: real time    0.6001
    SETDIJ:  cpu time    0.7920: real time    0.7914
     EDDAV:  cpu time   36.3640: real time   36.3767
       DOS:  cpu time    0.0000: real time    0.0001
    CHARGE:  cpu time    0.7400: real time    0.7414
    MIXING:  cpu time    0.0120: real time    0.0112
    --------------------------------------------
      LOOP:  cpu time   38.5080: real time   38.5237

 eigenvalue-minimisations  :  1344
 total energy-change (2. order) :-0.6152325E+00  (-0.2696036E+00)
 number of electron     509.9532671 magnetization       7.8319982
 augmentation part        6.8381150 magnetization       5.9710829

 Free energy of the ion-electron system (eV)
  ---------------------------------------------------
  alpha Z        PSCENC =       343.12918115
  Ewald energy   TEWEN  =    -22001.56270897
  -Hartree energ DENC   =     -1794.26252724
  -exchange      EXHF   =         0.00000000
  -V(xc)+E(xc)   XCENC  =      1037.96876567
  PAW double counting   =     48605.51137587   -47933.38815075
  entropy T*S    EENTRO =         0.00000000
  eigenvalues    EBANDS =      1821.58356683
  atomic energy  EATOM  =     18802.50563071
  Solvation  Ediel_sol  =         0.00000000
  ---------------------------------------------------
  free energy    TOTEN  =     -1118.51486672 eV

  energy without entropy =    -1118.51486672  energy(sigma->0) =    -1118.51486672
  exchange ACFDT corr.  =         0.00000000  see jH, gK, PRB 81, 115126


--------------------------------------------------------------------------------------------------------




----------------------------------------- Iteration    1(  11)  ---------------------------------------


    POTLOK:  cpu time    0.5960: real time    0.5956
    SETDIJ:  cpu time    0.7920: real time    0.7923
     EDDAV:  cpu time   34.9680: real time   34.9843
       DOS:  cpu time    0.0000: real time    0.0001
    CHARGE:  cpu time    0.7600: real time    0.7576
    MIXING:  cpu time    0.0120: real time    0.0113
    --------------------------------------------
      LOOP:  cpu time   37.1280: real time   37.1434

 eigenvalue-minimisations  :  1280
 total energy-change (2. order) :-0.5581294E-01  (-0.2150776E+00)
 number of electron     509.9719283 magnetization      -1.4991992
 augmentation part        6.8450596 magnetization      -3.3922428

 Free energy of the ion-electron system (eV)
  ---------------------------------------------------
  alpha Z        PSCENC =       343.12918115
  Ewald energy   TEWEN  =    -22001.56270897
  -Hartree energ DENC   =     -1807.52249976
  -exchange      EXHF   =         0.00000000
  -V(xc)+E(xc)   XCENC  =      1039.60397573
  PAW double counting   =     50078.10046942   -49406.42894175
  entropy T*S    EENTRO =         0.00000000
  eigenvalues    EBANDS =      1833.60421382
  atomic energy  EATOM  =     18802.50563071
  Solvation  Ediel_sol  =         0.00000000
  ---------------------------------------------------
  free energy    TOTEN  =     -1118.57067966 eV

  energy without entropy =    -1118.57067966  energy(sigma->0) =    -1118.57067966
  exchange ACFDT corr.  =         0.00000000  see jH, gK, PRB 81, 115126


--------------------------------------------------------------------------------------------------------




----------------------------------------- Iteration    1(  12)  ---------------------------------------


    POTLOK:  cpu time    0.6160: real time    0.6167
    SETDIJ:  cpu time    0.8280: real time    0.8279
     EDDAV:  cpu time   39.3800: real time   39.3965
       DOS:  cpu time    0.0000: real time    0.0001
    CHARGE:  cpu time    0.8080: real time    0.8066
    MIXING:  cpu time    0.0120: real time    0.0121
    --------------------------------------------
      LOOP:  cpu time   41.6440: real time   41.6628

 eigenvalue-minimisations  :  1440
 total energy-change (2. order) :-0.2136267E+00  (-0.1964681E+00)
 number of electron     509.9831251 magnetization       4.0995190
 augmentation part        6.8402360 magnetization       2.2255010

 Free energy of the ion-electron system (eV)
  ---------------------------------------------------
  alpha Z        PSCENC =       343.12918115
  Ewald energy   TEWEN  =    -22001.56270897
  -Hartree energ DENC   =     -1815.32549750
  -exchange      EXHF   =         0.00000000
  -V(xc)+E(xc)   XCENC  =      1040.46762125
  PAW double counting   =     50968.32347451   -50296.92799090
  entropy T*S    EENTRO =         0.00000000
  eigenvalues    EBANDS =      1840.60598340
  atomic energy  EATOM  =     18802.50563071
  Solvation  Ediel_sol  =         0.00000000
  ---------------------------------------------------
  free energy    TOTEN  =     -1118.78430636 eV

  energy without entropy =    -1118.78430636  energy(sigma->0) =    -1118.78430636
  exchange ACFDT corr.  =         0.00000000  see jH, gK, PRB 81, 115126


--------------------------------------------------------------------------------------------------------




----------------------------------------- Iteration    1(  13)  ---------------------------------------


    POTLOK:  cpu time    0.6720: real time    0.6744
    SETDIJ:  cpu time    0.8520: real time    0.8495
     EDDAV:  cpu time   36.7320: real time   36.7489
       DOS:  cpu time    0.0000: real time    0.0001
    CHARGE:  cpu time    0.8080: real time    0.8057
    MIXING:  cpu time    0.0120: real time    0.0117
    --------------------------------------------
      LOOP:  cpu time   39.0760: real time   39.0925

 eigenvalue-minimisations  :  1320
 total energy-change (2. order) : 0.9561459E-01  (-0.1886417E+00)
 number of electron     509.9898432 magnetization       0.7402883
 augmentation part        6.8465310 magnetization      -1.1456782

 Free energy of the ion-electron system (eV)
  ---------------------------------------------------
  alpha Z        PSCENC =       343.12918115
  Ewald energy   TEWEN  =    -22001.56270897
  -Hartree energ DENC   =     -1819.54392400
  -exchange      EXHF   =         0.00000000
  -V(xc)+E(xc)   XCENC  =      1041.04711478
  PAW double counting   =     51501.94988701   -50830.69932004
  entropy T*S    EENTRO =         0.00000000
  eigenvalues    EBANDS =      1844.48544760
  atomic energy  EATOM  =     18802.50563071
  Solvation  Ediel_sol  =         0.00000000
  ---------------------------------------------------
  free energy    TOTEN  =     -1118.68869176 eV

  energy without entropy =    -1118.68869176  energy(sigma->0) =    -1118.68869176
  exchange ACFDT corr.  =         0.00000000  see jH, gK, PRB 81, 115126


--------------------------------------------------------------------------------------------------------




----------------------------------------- Iteration    1(  14)  ---------------------------------------


    POTLOK:  cpu time    0.6600: real time    0.6597
    SETDIJ:  cpu time    0.8480: real time    0.8505
     EDDAV:  cpu time   40.1000: real time   40.1146
       DOS:  cpu time    0.0000: real time    0.0001
    CHARGE:  cpu time    0.7920: real time    0.7943
    MIXING:  cpu time    0.0120: real time    0.0117
    --------------------------------------------
      LOOP:  cpu time   42.4120: real time   42.4337

 eigenvalue-minimisations  :  1472
 total energy-change (2. order) :-0.1431129E+00  (-0.1912783E+00)
 number of electron     509.9938740 magnetization       2.7558266
 augmentation part        6.8445360 magnetization       0.8757930

 Free energy of the ion-electron system (eV)
  ---------------------------------------------------
  alpha Z        PSCENC =       343.12918115
  Ewald energy   TEWEN  =    -22001.56270897
  -Hartree energ DENC   =     -1822.13141276
  -exchange      EXHF   =         0.00000000
  -V(xc)+E(xc)   XCENC  =      1041.35616863
  PAW double counting   =     51823.17637378   -51152.01718889
  entropy T*S    EENTRO =         0.00000000
  eigenvalues    EBANDS =      1846.71215173
  atomic energy  EATOM  =     18802.50563071
  Solvation  Ediel_sol  =         0.00000000
  ---------------------------------------------------
  free energy    TOTEN  =     -1118.83180462 eV

  energy without entropy =    -1118.83180462  energy(sigma->0) =    -1118.83180462
  exchange ACFDT corr.  =         0.00000000  see jH, gK, PRB 81, 115126


--------------------------------------------------------------------------------------------------------




----------------------------------------- Iteration    1(  15)  ---------------------------------------


    POTLOK:  cpu time    0.6680: real time    0.6672
    SETDIJ:  cpu time    0.8720: real time    0.8720
     EDDAV:  cpu time   37.0040: real time   37.0189
       DOS:  cpu time    0.0000: real time    0.0001
    CHARGE:  cpu time    0.7880: real time    0.7892
    MIXING:  cpu time    0.0120: real time    0.0114
    --------------------------------------------
      LOOP:  cpu time   39.3440: real time   39.3610

 eigenvalue-minimisations  :  1336
 total energy-change (2. order) : 0.1406265E+00  (-0.2047727E+00)
 number of electron     509.9962926 magnetization       1.5465037
 augmentation part        6.8482814 magnetization      -0.3386954

 Free energy of the ion-electron system (eV)
  ---------------------------------------------------
  alpha Z        PSCENC =       343.12918115
  Ewald energy   TEWEN  =    -22001.56270897
  -Hartree energ DENC   =     -1823.54981077
  -exchange      EXHF   =         0.00000000
  -V(xc)+E(xc)   XCENC  =      1041.58131820
  PAW double counting   =     52013.77875243   -51342.66466033
  entropy T*S    EENTRO =         0.00000000
  eigenvalues    EBANDS =      1848.09111946
  atomic energy  EATOM  =     18802.50563071
  Solvation  Ediel_sol  =         0.00000000
  ---------------------------------------------------
  free energy    TOTEN  =     -1118.69117813 eV

  energy without entropy =    -1118.69117813  energy(sigma->0) =    -1118.69117813
  exchange ACFDT corr.  =         0.00000000  see jH, gK, PRB 81, 115126


--------------------------------------------------------------------------------------------------------




----------------------------------------- Iteration    1(  16)  ---------------------------------------


    POTLOK:  cpu time    0.6840: real time    0.6831
    SETDIJ:  cpu time    0.8600: real time    0.8598
     EDDAV:  cpu time   39.4280: real time   39.4423
       DOS:  cpu time    0.0000: real time    0.0001
    CHARGE:  cpu time    0.8160: real time    0.8193
    MIXING:  cpu time    0.0120: real time    0.0120
    --------------------------------------------
      LOOP:  cpu time   41.8000: real time   41.8202

 eigenvalue-minimisations  :  1456
 total energy-change (2. order) :-0.1393204E+00  (-0.1809863E+00)
 number of electron     509.9977437 magnetization       2.2720974
 augmentation part        6.8469861 magnetization       0.3888080

 Free energy of the ion-electron system (eV)
  ---------------------------------------------------
  alpha Z        PSCENC =       343.12918115
  Ewald energy   TEWEN  =    -22001.56270897
  -Hartree energ DENC   =     -1824.48978034
  -exchange      EXHF   =         0.00000000
  -V(xc)+E(xc)   XCENC  =      1041.68681460
  PAW double counting   =     52128.56370845   -51457.48220712
  entropy T*S    EENTRO =         0.00000000
  eigenvalues    EBANDS =      1848.81886302
  atomic energy  EATOM  =     18802.50563071
  Solvation  Ediel_sol  =         0.00000000
  ---------------------------------------------------
  free energy    TOTEN  =     -1118.83049852 eV

  energy without entropy =    -1118.83049852  energy(sigma->0) =    -1118.83049852
  exchange ACFDT corr.  =         0.00000000  see jH, gK, PRB 81, 115126


--------------------------------------------------------------------------------------------------------




----------------------------------------- Iteration    1(  17)  ---------------------------------------


    POTLOK:  cpu time    0.6760: real time    0.6772
    SETDIJ:  cpu time    0.8920: real time    0.8927
     EDDAV:  cpu time   37.1360: real time   37.1515
       DOS:  cpu time    0.0000: real time    0.0001
    CHARGE:  cpu time    0.8160: real time    0.8149
    MIXING:  cpu time    0.0120: real time    0.0121
    --------------------------------------------
      LOOP:  cpu time   39.5360: real time   39.5512

 eigenvalue-minimisations  :  1352
 total energy-change (2. order) : 0.1246988E+00  (-0.1858114E+00)
 number of electron     509.9986143 magnetization       1.8367412
 augmentation part        6.8486159 magnetization      -0.0475700

 Free energy of the ion-electron system (eV)
  ---------------------------------------------------
  alpha Z        PSCENC =       343.12918115
  Ewald energy   TEWEN  =    -22001.56270897
  -Hartree energ DENC   =     -1824.98881161
  -exchange      EXHF   =         0.00000000
  -V(xc)+E(xc)   XCENC  =      1041.76435161
  PAW double counting   =     52195.92871020   -51524.86099170
  entropy T*S    EENTRO =         0.00000000
  eigenvalues    EBANDS =      1849.37883889
  atomic energy  EATOM  =     18802.50563071
  Solvation  Ediel_sol  =         0.00000000
  ---------------------------------------------------
  free energy    TOTEN  =     -1118.70579973 eV

  energy without entropy =    -1118.70579973  energy(sigma->0) =    -1118.70579973
  exchange ACFDT corr.  =         0.00000000  see jH, gK, PRB 81, 115126


--------------------------------------------------------------------------------------------------------




----------------------------------------- Iteration    1(  18)  ---------------------------------------


    POTLOK:  cpu time    0.6800: real time    0.6819
    SETDIJ:  cpu time    0.8840: real time    0.8827
     EDDAV:  cpu time   39.6120: real time   39.6265
       DOS:  cpu time    0.0000: real time    0.0001
    CHARGE:  cpu time    0.8240: real time    0.8253
    MIXING:  cpu time    0.0120: real time    0.0122
    --------------------------------------------
      LOOP:  cpu time   42.0120: real time   42.0314

 eigenvalue-minimisations  :  1464
 total energy-change (2. order) :-0.1322944E+00  (-0.1877215E+00)
 number of electron     509.9991367 magnetization       2.0979549
 augmentation part        6.8478295 magnetization       0.2136153

 Free energy of the ion-electron system (eV)
  ---------------------------------------------------
  alpha Z        PSCENC =       343.12918115
  Ewald energy   TEWEN  =    -22001.56270897
  -Hartree energ DENC   =     -1825.30945120
  -exchange      EXHF   =         0.00000000
  -V(xc)+E(xc)   XCENC  =      1041.80075654
  PAW double counting   =     52237.05873929   -51566.00199889
  entropy T*S    EENTRO =         0.00000000
  eigenvalues    EBANDS =      1849.54175730
  atomic energy  EATOM  =     18802.50563071
  Solvation  Ediel_sol  =         0.00000000
  ---------------------------------------------------
  free energy    TOTEN  =     -1118.83809409 eV

  energy without entropy =    -1118.83809409  energy(sigma->0) =    -1118.83809409
  exchange ACFDT corr.  =         0.00000000  see jH, gK, PRB 81, 115126


--------------------------------------------------------------------------------------------------------




----------------------------------------- Iteration    1(  19)  ---------------------------------------


    POTLOK:  cpu time    0.6760: real time    0.6749
    SETDIJ:  cpu time    0.8880: real time    0.8887
     EDDAV:  cpu time   36.4400: real time   36.4545
       DOS:  cpu time    0.0000: real time    0.0001
    CHARGE:  cpu time    0.8200: real time    0.8202
    MIXING:  cpu time    0.0120: real time    0.0122
    --------------------------------------------
      LOOP:  cpu time   38.8360: real time   38.8527

 eigenvalue-minimisations  :  1320
 total energy-change (2. order) : 0.1445417E+00  (-0.2035810E+00)
 number of electron     509.9994502 magnetization       1.9412267
 augmentation part        6.8493498 magnetization       0.0561553

 Free energy of the ion-electron system (eV)
  ---------------------------------------------------
  alpha Z        PSCENC =       343.12918115
  Ewald energy   TEWEN  =    -22001.56270897
  -Hartree energ DENC   =     -1825.48221955
  -exchange      EXHF   =         0.00000000
  -V(xc)+E(xc)   XCENC  =      1041.84429849
  PAW double counting   =     52260.40147008   -51589.34699783
  entropy T*S    EENTRO =         0.00000000
  eigenvalues    EBANDS =      1849.81779355
  atomic energy  EATOM  =     18802.50563071
  Solvation  Ediel_sol  =         0.00000000
  ---------------------------------------------------
  free energy    TOTEN  =     -1118.69355238 eV

  energy without entropy =    -1118.69355238  energy(sigma->0) =    -1118.69355238
  exchange ACFDT corr.  =         0.00000000  see jH, gK, PRB 81, 115126


--------------------------------------------------------------------------------------------------------




----------------------------------------- Iteration    1(  20)  ---------------------------------------


    POTLOK:  cpu time    0.6680: real time    0.6691
    SETDIJ:  cpu time    0.8880: real time    0.8847
     EDDAV:  cpu time   39.7520: real time   39.7677
       DOS:  cpu time    0.0000: real time    0.0001
    CHARGE:  cpu time    0.8240: real time    0.8259
    MIXING:  cpu time    0.0120: real time    0.0123
    --------------------------------------------
      LOOP:  cpu time   42.1440: real time   42.1623

 eigenvalue-minimisations  :  1472
 total energy-change (2. order) :-0.1383708E+00  (-0.1816318E+00)
 number of electron     509.9996382 magnetization       2.0352636
 augmentation part        6.8482842 magnetization       0.1503209

 Free energy of the ion-electron system (eV)
  ---------------------------------------------------
  alpha Z        PSCENC =       343.12918115
  Ewald energy   TEWEN  =    -22001.56270897
  -Hartree energ DENC   =     -1825.63120593
  -exchange      EXHF   =         0.00000000
  -V(xc)+E(xc)   XCENC  =      1041.85012788
  PAW double counting   =     52275.20767357   -51604.15891394
  entropy T*S    EENTRO =         0.00000000
  eigenvalues    EBANDS =      1849.82829231
  atomic energy  EATOM  =     18802.50563071
  Solvation  Ediel_sol  =         0.00000000
  ---------------------------------------------------
  free energy    TOTEN  =     -1118.83192323 eV

  energy without entropy =    -1118.83192323  energy(sigma->0) =    -1118.83192323
  exchange ACFDT corr.  =         0.00000000  see jH, gK, PRB 81, 115126


--------------------------------------------------------------------------------------------------------




----------------------------------------- Iteration    1(  21)  ---------------------------------------


    POTLOK:  cpu time    0.6800: real time    0.6776
    SETDIJ:  cpu time    0.8920: real time    0.8952
     EDDAV:  cpu time   36.9720: real time   36.9852
       DOS:  cpu time    0.0000: real time    0.0001
    CHARGE:  cpu time    0.8160: real time    0.8150
    MIXING:  cpu time    0.0120: real time    0.0120
    --------------------------------------------
      LOOP:  cpu time   39.3720: real time   39.3874

 eigenvalue-minimisations  :  1344
 total energy-change (2. order) : 0.1258689E+00  (-0.1861086E+00)
 number of electron     509.9997511 magnetization       1.9788415
 augmentation part        6.8490252 magnetization       0.0943926

 Free energy of the ion-electron system (eV)
  ---------------------------------------------------
  alpha Z        PSCENC =       343.12918115
  Ewald energy   TEWEN  =    -22001.56270897
  -Hartree energ DENC   =     -1825.68710290
  -exchange      EXHF   =         0.00000000
  -V(xc)+E(xc)   XCENC  =      1041.86096307
  PAW double counting   =     52283.06547343   -51612.01661796
  entropy T*S    EENTRO =         0.00000000
  eigenvalues    EBANDS =      1849.99912716
  atomic energy  EATOM  =     18802.50563071
  Solvation  Ediel_sol  =         0.00000000
  ---------------------------------------------------
  free energy    TOTEN  =     -1118.70605432 eV

  energy without entropy =    -1118.70605432  energy(sigma->0) =    -1118.70605432
  exchange ACFDT corr.  =         0.00000000  see jH, gK, PRB 81, 115126


--------------------------------------------------------------------------------------------------------




----------------------------------------- Iteration    1(  22)  ---------------------------------------


    POTLOK:  cpu time    0.6720: real time    0.6738
    SETDIJ:  cpu time    0.8960: real time    0.8947
     EDDAV:  cpu time   39.2600: real time   39.2771
       DOS:  cpu time    0.0000: real time    0.0001
    CHARGE:  cpu time    0.8240: real time    0.8223
    MIXING:  cpu time    0.0120: real time    0.0122
    --------------------------------------------
      LOOP:  cpu time   41.6640: real time   41.6829

 eigenvalue-minimisations  :  1448
[...]
   0.326E+00 -.311E+01 0.736E+00   0.924E-05 0.275E+01 -.354E+00   -.262E-11 0.114E+00 -.280E+00   -.355E+00 0.275E+00 -.359E-01
   -.129E+00 0.141E+01 0.157E+01   0.154E+00 -.137E+01 -.238E+01   -.995E-01 0.398E-01 0.108E+01   0.136E+00 -.124E+00 -.209E+00
   -.825E+01 0.724E+01 -.132E+02   0.735E+01 -.711E+01 0.144E+02   0.372E+00 0.372E+00 -.224E+01   0.494E+00 -.521E+00 0.113E+01
   0.691E+00 0.255E+02 0.177E+02   0.100E-04 -.273E+02 -.191E+02   -.934E-11 0.408E+00 0.364E+01   -.816E+00 0.118E+01 -.269E+01
   0.110E+01 0.850E+02 0.282E+02   0.154E-04 -.928E+02 -.297E+02   -.255E-09 0.111E+02 0.253E+01   -.129E+01 0.760E+00 -.240E+00
   -.638E+01 0.259E+02 0.728E+01   0.771E+01 -.265E+02 -.609E+01   -.309E+01 0.208E+01 -.193E+01   0.224E+01 -.148E+01 0.112E+01
   0.451E+00 0.119E+01 -.188E+01   -.450E+00 -.260E+00 0.138E+01   -.306E+00 -.177E+00 0.262E+00   0.390E+00 -.971E+00 0.234E+00
   0.163E+00 0.553E+01 -.279E+01   -.209E+00 -.490E+01 0.226E+01   -.235E+00 -.117E+00 0.214E+00   0.373E+00 -.635E+00 0.314E+00
   -.334E+00 0.942E+00 -.401E+01   0.159E+00 -.809E+00 0.425E+01   -.457E-02 0.223E+00 -.245E+00   0.212E+00 -.379E+00 -.142E-01
   -.189E+00 0.463E+00 0.730E+00   0.751E-01 0.434E-01 -.116E+01   -.878E-01 -.507E-01 0.400E+00   0.206E+00 -.513E+00 0.587E-01
   -.180E+01 0.317E-01 -.100E+01   0.125E+01 0.722E+00 0.212E+01   0.177E+00 0.102E+00 -.844E+00   0.379E+00 -.959E+00 -.305E+00
   -.172E+01 0.430E+01 0.422E+01   0.878E+00 -.384E+01 -.438E+01   0.957E-01 0.605E+00 0.686E+00   0.793E+00 -.117E+01 -.562E+00
   -.253E+01 0.751E+01 0.700E+00   0.752E+00 -.749E+01 -.151E+01   0.698E+00 0.195E+01 0.619E+00   0.123E+01 -.186E+01 0.857E-01
   0.170E+01 0.283E+01 0.488E+01   -.137E+01 -.790E+00 -.393E+01   -.837E+00 -.483E+00 -.805E+00   0.688E+00 -.182E+01 -.144E+00
   0.272E+00 -.160E+00 -.188E+01   -.165E+01 0.954E+00 0.826E+00   0.241E+00 -.139E+00 0.213E+00   0.128E+01 -.733E+00 0.875E+00
   -.510E+00 0.290E+00 0.206E+00   0.892E-05 0.103E-04 -.414E+00   -.347E-17 0.347E-17 0.221E+00   0.618E+00 -.352E+00 0.134E-02
   -.346E+00 0.197E+00 -.288E+01   0.901E-05 0.104E-04 0.313E+01   -.867E-18 0.000E+00 -.257E+00   0.403E+00 -.229E+00 0.419E-03
   0.594E-01 -.358E-01 0.765E+00   -.654E+00 0.378E+00 -.135E+01   0.803E-01 -.463E-01 0.420E+00   0.563E+00 -.323E+00 0.248E+00
   0.106E+01 -.614E+00 -.178E+01   -.224E+01 0.130E+01 0.311E+01   0.138E+00 -.797E-01 -.613E+00   0.113E+01 -.649E+00 -.850E+00
   -.890E+00 0.506E+00 0.244E+01   0.896E-05 0.104E-04 -.272E+01   0.867E-17 -.694E-17 0.278E+00   0.101E+01 -.574E+00 -.134E-02
   -.110E+01 0.622E+00 -.823E+00   0.893E-05 0.103E-04 0.712E+00   0.278E-16 -.139E-16 0.811E-01   0.138E+01 -.782E+00 -.213E-04
   0.124E+01 -.722E+00 0.407E+01   -.391E+01 0.226E+01 -.305E+01   0.459E+00 -.265E+00 -.422E+00   0.244E+01 -.140E+01 -.636E+00
   0.608E+01 -.321E+01 0.216E+01   -.828E+01 0.110E+01 -.475E+01   0.150E+01 0.628E+00 0.386E+00   0.659E+00 0.161E+01 0.208E+01
   0.334E+01 -.307E+01 -.165E+01   -.414E+01 0.263E+01 0.226E+01   0.160E-01 0.262E+00 0.214E+00   0.895E+00 0.130E+00 -.877E+00
   0.141E+00 -.289E+00 -.415E+01   -.780E+00 0.267E+00 0.425E+01   0.195E+00 -.107E+00 -.245E+00   0.521E+00 0.101E+00 0.615E-01
   0.105E+01 -.116E+01 0.112E+01   -.126E+01 0.550E+00 -.238E+01   0.842E-01 0.662E-01 0.108E+01   0.994E-01 0.573E+00 0.476E+00
   0.924E+01 0.210E+01 -.105E+02   -.983E+01 -.281E+01 0.144E+02   0.137E+00 -.508E+00 -.224E+01   0.549E+00 0.134E+01 -.200E+01
   0.128E+01 -.105E+01 0.242E+01   -.377E+01 0.116E+01 -.438E+01   0.476E+00 -.385E+00 0.686E+00   0.208E+01 0.260E+00 0.145E+01
   0.176E+01 -.127E+01 0.600E+00   -.686E+01 0.309E+01 -.151E+01   0.134E+01 -.158E+01 0.619E+00   0.334E+01 0.212E+00 -.695E-02
   0.213E+02 -.124E+02 0.105E+02   -.268E+02 0.655E+01 -.609E+01   0.334E+01 0.164E+01 -.193E+01   0.294E+01 0.426E+01 -.225E+01
   0.297E+01 0.629E+01 0.514E+01   -.319E+01 -.772E+01 -.475E+01   0.129E+01 0.986E+00 0.386E+00   -.110E+01 0.599E+00 -.925E+00
   0.231E+01 0.546E+00 -.438E+01   -.239E+01 -.138E+01 0.480E+01   0.227E+00 0.131E+00 -.126E+00   -.225E+00 0.933E+00 -.273E+00
   0.760E+00 -.416E-01 -.367E+01   -.817E+00 -.472E+00 0.388E+01   0.164E+00 0.948E-01 -.337E+00   -.144E+00 0.520E+00 0.273E-02
   0.424E+00 0.100E+01 0.155E+01   -.154E+00 -.137E+01 -.238E+01   0.995E-01 0.398E-01 0.108E+01   -.401E+00 0.330E+00 -.254E+00
   0.872E+01 0.613E+01 -.129E+02   -.735E+01 -.711E+01 0.144E+02   -.372E+00 0.372E+00 -.224E+01   -.967E+00 0.667E+00 0.900E+00
   0.766E+01 0.248E+01 0.815E+01   -.773E+01 -.446E+01 -.912E+01   0.502E+00 0.290E+00 0.709E+00   -.529E+00 0.193E+01 0.378E+00
   0.151E+02 0.578E+01 0.206E+01   -.158E+02 -.911E+01 -.292E+01   0.134E+01 0.772E+00 0.856E+00   -.753E+00 0.303E+01 0.126E-02
   0.731E+01 0.234E+02 0.690E+01   -.771E+01 -.265E+02 -.609E+01   0.309E+01 0.208E+01 -.193E+01   -.303E+01 0.930E+00 0.117E+01
   -.338E+00 0.230E+01 -.658E+00   -.906E-05 -.191E+01 0.826E+00   -.638E-11 0.278E+00 0.213E+00   0.378E+00 -.730E+00 -.439E+00
   -.272E+00 0.505E+01 -.303E+01   0.209E+00 -.490E+01 0.226E+01   0.235E+00 -.117E+00 0.214E+00   -.188E+00 -.753E-01 0.566E+00
   0.293E+00 0.600E+00 -.396E+01   -.159E+00 -.809E+00 0.425E+01   0.457E-02 0.223E+00 -.245E+00   -.131E+00 -.146E-01 -.405E-01
   -.189E+00 0.981E+00 0.103E+01   -.901E-05 -.755E+00 -.135E+01   -.212E-11 0.927E-01 0.420E+00   0.192E+00 -.321E+00 -.122E+00
   -.384E+00 0.307E+01 -.288E+01   -.900E-05 -.259E+01 0.311E+01   -.365E-11 0.159E+00 -.613E+00   0.397E+00 -.653E+00 0.425E+00
   0.147E+01 0.366E+01 0.447E+01   -.878E+00 -.384E+01 -.438E+01   -.957E-01 0.605E+00 0.686E+00   -.468E+00 -.498E+00 -.895E+00
   0.245E+01 0.683E+01 0.859E+00   -.752E+00 -.749E+01 -.151E+01   -.698E+00 0.195E+01 0.619E+00   -.634E+00 -.942E+00 -.801E-01
   -.715E+00 0.524E+01 0.330E+01   -.912E-05 -.451E+01 -.305E+01   -.121E-10 0.530E+00 -.422E+00   0.757E+00 -.141E+01 0.318E+00
   0.252E+01 -.143E+01 -.109E+03   -.135E-04 -.156E-04 0.138E+03   0.694E-17 0.000E+00 -.289E+02   -.285E+01 0.162E+01 0.784E-01
 -----------------------------------------------------------------------------------------------
   -.171E+02 0.968E+01 0.731E+01   0.466E-12 0.899E-12 -.341E-12   0.106E-13 -.278E-14 -.711E+01   0.959E+01 -.545E+01 -.877E-01
 
 
 POSITION                                       TOTAL-FORCE (eV/Angst)
 -----------------------------------------------------------------------------------
      0.00126      1.45565      0.25286        -0.010103     -0.005833     -0.028108
      1.26549      0.73624      3.86490        -0.007196      0.030182     -0.013958
      1.26115      0.72865      2.31634        -0.017610     -0.006135     -0.031031
      0.00107      1.45554      1.80266        -0.014999     -0.008660      0.009331
      0.00236      1.45628      4.37551        -0.020432     -0.011796     -0.020501
      1.26165      0.72533      7.98143         0.037587      0.019330      0.005668
      1.25906      0.71941      6.43271         0.094376     -0.097877     -0.174318
      0.00048      1.45520      5.92318         0.012918      0.007458      0.087832
     -1.26000      3.63632      0.25486         0.000000     -0.017118     -0.028697
      0.01035      2.91021      3.86490         0.022541     -0.021323     -0.013958
      0.00161      2.91025      2.31634        -0.014118     -0.012184     -0.031031
     -1.26000      3.63638      1.80573        -0.000000      0.013083      0.008881
     -1.26000      3.63857      4.37658        -0.000000      0.021177      0.015378
     -0.00102      2.91234      7.98143         0.035534      0.022886      0.005668
     -0.00744      2.91306      6.43271        -0.037576      0.130671     -0.174318
     -1.26000      3.63822      5.92299         0.000000     -0.118662      0.061907
     -2.52139      5.81889      0.25470         0.007536      0.004351      0.001404
     -1.26000      5.09219      3.86570         0.000000     -0.000168      0.007590
     -1.26000      5.09222      2.31626         0.000000     -0.000112      0.003421
     -2.52084      5.81921      1.80476         0.004592      0.002651      0.014516
     -2.52178      5.81866      4.37888        -0.001227     -0.000709     -0.001628
     -1.26000      5.09195      7.98404        -0.000000      0.010020      0.037629
     -1.26000      5.09225      6.43542         0.000000     -0.004481     -0.038434
     -2.52320      5.81785      5.92661        -0.035625     -0.020568      0.058973
     -3.78085      8.00257      0.25486        -0.014825      0.008559     -0.028697
     -2.52003      7.27463      3.86570        -0.000145      0.000084      0.007590
     -2.52001      7.27462      2.31626        -0.000097      0.000056      0.003421
     -3.78080      8.00254      1.80573         0.011331     -0.006542      0.008881
     -3.77890      8.00144      4.37658         0.018340     -0.010589      0.015378
     -2.52024      7.27475      7.98404         0.008677     -0.005010      0.037629
     -2.51998      7.27460      6.43542        -0.003881      0.002241     -0.038434
     -3.77921      8.00162      5.92299        -0.102764      0.059331      0.061907
      2.52084      1.45277      0.25823        -0.033026      0.035514     -0.158955
      3.78000      0.73210      3.86986         0.000000     -0.003936      0.033002
      3.78000      0.72865      2.31943         0.000000     -0.002311     -0.085921
      2.52006      1.45308      1.80135         0.007846      0.035170      0.118068
      2.53382      1.47237      4.38258         0.012550     -0.068105     -0.011767
      3.78000      0.73031      7.98390         0.000000     -0.006113      0.061124
      3.78000      0.73594      6.43765        -0.000000      0.022674     -0.084093
      2.52481      1.47492      5.93185        -0.254708      0.012706      0.209335
      1.25855      3.63911      0.25823         0.014243     -0.046358     -0.158955
      2.55618      2.93074      3.85277        -0.318362     -0.183806      0.218125
      2.51719      2.90822      2.30116         0.091888      0.053051      0.034000
      1.25843      3.63828      1.80135         0.034381     -0.010791      0.118068
      1.28202      3.64055      4.38258        -0.052706      0.044921     -0.011767
      2.51129      2.90482      7.97103         0.215498      0.124418     -0.181172
      2.42207      2.85330      6.49076        -1.100621     -0.635444     -0.256896
      1.27973      3.63148      5.93185        -0.116350     -0.226936      0.209335
      0.00139      5.81889      0.25470        -0.007536      0.004351      0.001404
      1.26402      5.08991      3.86986        -0.003408      0.001968      0.033002
      1.26103      5.09163      2.31943        -0.002001      0.001155     -0.085921
      0.00084      5.81921      1.80476        -0.004592      0.002651      0.014516
      0.00178      5.81866      4.37888         0.001227     -0.000709     -0.001628
      1.26246      5.09081      7.98390        -0.005294      0.003056      0.061124
      1.26734      5.08799      6.43765         0.019636     -0.011337     -0.084093
      0.00320      5.81785      5.92661         0.035625     -0.020568      0.058973
     -1.26000      8.00367      0.25470         0.000000     -0.008702      0.001404
      0.00003      7.27463      3.86570         0.000145      0.000084      0.007590
      0.00001      7.27462      2.31626         0.000097      0.000056      0.003421
     -1.26000      8.00305      1.80476         0.000000     -0.005302      0.014516
     -1.26000      8.00413      4.37888        -0.000000      0.001417     -0.001628
      0.00024      7.27475      7.98404        -0.008677     -0.005010      0.037629
     -0.00002      7.27460      6.43542         0.003881      0.002241     -0.038434
     -1.26000      8.00576      5.92661        -0.000000      0.041136      0.058973
      5.03916      1.45277      0.25823         0.033026      0.035514     -0.158955
      6.29451      0.73624      3.86490         0.007196      0.030182     -0.013958
      6.29885      0.72865      2.31634         0.017610     -0.006135     -0.031031
      5.03994      1.45308      1.80135        -0.007846      0.035170      0.118068
      5.02618      1.47237      4.38258        -0.012550     -0.068105     -0.011767
      6.29835      0.72533      7.98143        -0.037587      0.019330      0.005668
      6.30094      0.71941      6.43271        -0.094376     -0.097877     -0.174318
      5.03519      1.47492      5.93185         0.254708      0.012706      0.209335
      3.78000      3.63731      0.24713        -0.000000      0.000000      0.251254
      5.00382      2.93074      3.85277         0.318362     -0.183806      0.218125
      5.04281      2.90822      2.30116        -0.091888      0.053051      0.034000
      3.78000      3.63731      1.78144         0.000000      0.000000     -0.148992
      5.04871      2.90482      7.97103        -0.215498      0.124418     -0.181172
      5.13793      2.85330      6.49076         1.100621     -0.635444     -0.256896
      2.51771      5.82004      0.25823         0.047269      0.010845     -0.158955
      3.78000      5.05045      3.85277        -0.000000      0.367613      0.218125
      3.78000      5.09547      2.30116         0.000000     -0.106103      0.034000
      2.51838      5.82056      1.80135         0.026536     -0.024380      0.118068
      2.52820      5.79900      4.38258        -0.065256      0.023184     -0.011767
      3.78000      5.10228      7.97103         0.000000     -0.248835     -0.181172
      3.78000      5.20531      6.49076        -0.000000      1.270888     -0.256896
      2.53491      5.80552      5.93185         0.138358      0.214230      0.209335
      1.26085      8.00257      0.25486         0.014825      0.008559     -0.028697
      2.52486      7.26547      3.86490         0.029736     -0.008859     -0.013958
      2.52046      7.27302      2.31634         0.003492      0.018318     -0.031031
      1.26080      8.00254      1.80573        -0.011331     -0.006542      0.008881
      1.25890      8.00144      4.37658        -0.018340     -0.010589      0.015378
      2.51733      7.27425      7.98143        -0.002053     -0.042217      0.005668
      2.51350      7.27945      6.43271        -0.131952     -0.032793     -0.174318
      1.25921      8.00162      5.92299         0.102764      0.059331      0.061907
      7.55874      1.45565      0.25286         0.010103     -0.005833     -0.028108
      8.82000      0.72746      3.86223         0.000000      0.000000      0.013517
      8.82000      0.72746      2.31426        -0.000000      0.000000     -0.008799
      7.55893      1.45554      1.80266         0.014999     -0.008660      0.009331
      7.55764      1.45628      4.37551         0.020432     -0.011796     -0.020501
      8.82000      0.72746      7.98216        -0.000000      0.000000      0.000732
      8.82000      0.72746      6.43249         0.000000      0.000000     -0.030707
      7.55952      1.45520      5.92318        -0.012918      0.007458      0.087832
      6.30145      3.63911      0.25823        -0.014243     -0.046358     -0.158955
      7.54965      2.91021      3.86490        -0.022541     -0.021323     -0.013958
      7.55839      2.91025      2.31634         0.014118     -0.012184     -0.031031
      6.30157      3.63828      1.80135        -0.034381     -0.010791      0.118068
      6.27798      3.64055      4.38258         0.052706      0.044921     -0.011767
      7.56102      2.91234      7.98143        -0.035534      0.022886      0.005668
      7.56744      2.91306      6.43271         0.037576      0.130671     -0.174318
      6.28027      3.63148      5.93185         0.116350     -0.226936      0.209335
      5.04229      5.82004      0.25823        -0.047269      0.010845     -0.158955
      6.29598      5.08991      3.86986         0.003408      0.001968      0.033002
      6.29897      5.09163      2.31943         0.002001      0.001155     -0.085921
      5.04162      5.82056      1.80135        -0.026536     -0.024380      0.118068
      5.03180      5.79900      4.38258         0.065256      0.023184     -0.011767
      6.29754      5.09081      7.98390         0.005294      0.003056      0.061124
      6.29266      5.08799      6.43765        -0.019636     -0.011337     -0.084093
      5.02509      5.80552      5.93185        -0.138358      0.214230      0.209335
      3.78000      8.00062      0.25286        -0.000000      0.011666     -0.028108
      5.03514      7.26547      3.86490        -0.029736     -0.008859     -0.013958
      5.03954      7.27302      2.31634        -0.003492      0.018318     -0.031031
      3.78000      8.00084      1.80266        -0.000000      0.017319      0.009331
      3.78000      7.99935      4.37551        -0.000000      0.023592     -0.020501
      5.04267      7.27425      7.98143         0.002053     -0.042217      0.005668
      5.04650      7.27945      6.43271         0.131952     -0.032793     -0.174318
      3.78000      8.00152      5.92318         0.000000     -0.014917      0.087832
      3.78000      3.63731      4.27949        -0.000000      0.000000      0.481770
 -----------------------------------------------------------------------------------
    total drift:                               -7.479840      4.234451      0.110058


--------------------------------------------------------------------------------------------------------



  FREE ENERGIE OF THE ION-ELECTRON SYSTEM (eV)
  ---------------------------------------------------
  free  energy   TOTEN  =     -1118.83202991 eV

  energy  without entropy=    -1118.83202991  energy(sigma->0) =    -1118.83202991
 


--------------------------------------------------------------------------------------------------------


    POTLOK:  cpu time    1.5680: real time    1.5679

 Spin-spin contribution to zero-field splitting tensor (MHz)
 ---------------------------------------------------------------
      D_xx      D_yy      D_zz      D_xy      D_xz      D_yz
 ---------------------------------------------------------------
   -501.507  -501.507  1003.008     0.000     0.000     0.000
 ---------------------------------------------------------------

 after diagonalization
 ---------------------------------------------
     D_diag          eigenvector (x,y,z)
 ---------------------------------------------
   -501.507      -0.737    -0.676     0.000
   -501.507      -0.676     0.737     0.000
   1003.008       0.000     0.000     1.000
---------------------------------------------



--------------------------------------------------------------------------------------------------------


 writing wavefunctions
     LOOP+:  cpu time 3225.6640: real time 3227.4844
    4ORBIT:  cpu time    0.0000: real time    0.0000

 total amount of memory used by VASP on root node   230917. kBytes
========================================================================

   base      :      30000. kBytes
   nonl-proj :      15710. kBytes
   fftplans  :      27920. kBytes
   grid      :      73360. kBytes
   one-center:       2950. kBytes
   HF        :        193. kBytes
   nonlr-proj:       8918. kBytes
   wavefun   :      71866. kBytes
 
  
  
 General timing and accounting informations for this job:
 ========================================================
  
                  Total CPU time used (sec):     3235.976
                            User time (sec):     3234.968
                          System time (sec):        1.008
                         Elapsed time (sec):     3238.065
  
                   Maximum memory used (kb):      365072.
                   Average memory used (kb):           0.
  
                          Minor page faults:       183941
                          Major page faults:            0
                 Voluntary context switches:         3617
