 vasp.5.3.6 23Jan15 (build Feb 02 2016 19:35:31) gamma-only                     
  
 executed on           IFC91_ompi date 2016.02.04  02:45:26
 running on    1 total cores
 distrk:  each k-point on    1 cores,    1 groups
 distr:  one band on NCORES_PER_BAND=   1 cores,    1 groups


--------------------------------------------------------------------------------------------------------


 INCAR:
 POTCAR:    PAW_PBE C_GW_new 19Mar2012            
 POTCAR:   PAW_PBE N_GW_new 19Mar2012             
 POTCAR:    PAW_PBE C_GW_new 19Mar2012            
   VRHFIN =C: s2p2                                                              
   LEXCH  = PE                                                                  
   EATOM  =   147.1560 eV,   10.8157 Ry                                         
                                                                                
   TITEL  = PAW_PBE C_GW_new 19Mar2012                                          
   LULTRA =        F    use ultrasoft PP ?                                      
   IUNSCR =        1    unscreen: 0-lin 1-nonlin 2-no                           
   RPACOR =    0.800    partial core radius                                     
   POMASS =   12.011; ZVAL   =    4.000    mass and valenz                      
   RCORE  =    1.600    outmost cutoff radius                                   
   RWIGS  =    1.600; RWIGS  =    0.847    wigner-seitz radius (au A)           
   ENMAX  =  413.992; ENMIN  =  310.494 eV                                      
   ICORE  =        3    local potential                                         
   LCOR   =        T    correct aug charges                                     
   LPAW   =        T    paw PP                                                  
   EAUG   = 1213.930                                                            
   DEXC   =    0.000                                                            
   RMAX   =    1.630    core radius for proj-oper                               
   RAUG   =    1.300    factor for augmentation sphere                          
   RDEP   =    1.601    radius for radial grids                                 
   RDEPT  =    1.200    core radius for aug-charge                              
                                                                                
   Atomic configuration                                                         
    5 entries                                                                   
     n  l   j            E        occ.                                          
     1  0  0.50      -273.3789   2.0000                                         
     2  0  0.50       -13.7508   2.0000                                         
     2  1  0.50        -5.2854   2.0000                                         
     3  2  1.50        -5.4423   0.0000                                         
     4  3  2.50        -5.4423   0.0000                                         
   Description                                                                  
     l       E           TYP  RCUT    TYP  RCUT                                 
     0    -13.7508457     23  1.200                                             
     0     -7.5219285     23  1.200                                             
     0    272.1165200     23  1.300                                             
     1     -5.2854382     23  1.500                                             
     1    108.8466080     23  1.500                                             
     2     27.2116520     23  1.500                                             
     2    190.4815640     23  1.600                                             
     3     54.4233040     23  1.400                                             
  local pseudopotential read in
  partial core-charges read in
  partial kinetic energy density read in
  kinetic energy density of atom read in
  atomic valenz-charges read in
  non local Contribution for L=           0  read in
    real space projection operators read in
  non local Contribution for L=           0  read in
    real space projection operators read in
  non local Contribution for L=           0  read in
    real space projection operators read in
  non local Contribution for L=           1  read in
    real space projection operators read in
  non local Contribution for L=           1  read in
    real space projection operators read in
  non local Contribution for L=           2  read in
    real space projection operators read in
  non local Contribution for L=           2  read in
    real space projection operators read in
    PAW grid and wavefunctions read in
 
   number of l-projection  operators is LMAX  =           7
   number of lm-projection operators is LMMAX =          19
 
 POTCAR:   PAW_PBE N_GW_new 19Mar2012             
   VRHFIN =N: s2p3                                                              
   LEXCH  = PE                                                                  
   EATOM  =   264.5486 eV,   19.4438 Ry                                         
                                                                                
   TITEL  = PAW_PBE N_GW_new 19Mar2012                                          
   LULTRA =        F    use ultrasoft PP ?                                      
   IUNSCR =        1    unscreen: 0-lin 1-nonlin 2-no                           
   RPACOR =    0.800    partial core radius                                     
   POMASS =   14.001; ZVAL   =    5.000    mass and valenz                      
   RCORE  =    1.600    outmost cutoff radius                                   
   RWIGS  =    1.600; RWIGS  =    0.847    wigner-seitz radius (au A)           
   ENMAX  =  420.902; ENMIN  =  315.677 eV                                      
   ICORE  =        3    local potential                                         
   LCOR   =        T    correct aug charges                                     
   LPAW   =        T    paw PP                                                  
   EAUG   = 1173.595                                                            
   DEXC   =    0.000                                                            
   RMAX   =    1.638    core radius for proj-oper                               
   RAUG   =    1.300    factor for augmentation sphere                          
   RDEP   =    1.609    radius for radial grids                                 
   RDEPT  =    1.200    core radius for aug-charge                              
                                                                                
   Atomic configuration                                                         
    5 entries                                                                   
     n  l   j            E        occ.                                          
     1  0  0.50      -384.7179   2.0000                                         
     2  0  0.50       -18.5828   2.0000                                         
     2  1  0.50        -7.0898   3.0000                                         
     3  2  1.50        -8.1635   0.0000                                         
     4  3  2.50        -8.1635   0.0000                                         
   Description                                                                  
     l       E           TYP  RCUT    TYP  RCUT                                 
     0    -18.5828120     23  1.150                                             
     0    -16.4356426     23  1.150                                             
     0    258.5106940     23  1.300                                             
     1     -7.0897854     23  1.500                                             
     1     -3.1993695     23  1.500                                             
     1    136.0582600     23  1.500                                             
     2     27.2116520     23  1.500                                             
     2    190.4815640     23  1.600                                             
     3     54.4233040     23  1.400                                             
  local pseudopotential read in
  partial core-charges read in
  partial kinetic energy density read in
  kinetic energy density of atom read in
  atomic valenz-charges read in
  non local Contribution for L=           0  read in
    real space projection operators read in
  non local Contribution for L=           0  read in
    real space projection operators read in
  non local Contribution for L=           0  read in
    real space projection operators read in
  non local Contribution for L=           1  read in
    real space projection operators read in
  non local Contribution for L=           1  read in
    real space projection operators read in
  non local Contribution for L=           1  read in
    real space projection operators read in
  non local Contribution for L=           2  read in
    real space projection operators read in
  non local Contribution for L=           2  read in
    real space projection operators read in
    PAW grid and wavefunctions read in
 
   number of l-projection  operators is LMAX  =           8
   number of lm-projection operators is LMMAX =          22
 

 ----------------------------------------------------------------------------- 
|                                                                             |
|  ADVICE TO THIS USER RUNNING 'VASP/VAMP'   (HEAR YOUR MASTER'S VOICE ...):  |
|                                                                             |
|      You have a (more or less) 'large supercell' and for larger cells       |
|      it might be more efficient to use real space projection opertators     |
|      So try LREAL= Auto  in the INCAR   file.                               |
|      Mind: At the moment your POTCAR file does not contain real space       |
|       projectors, and has to be modified,  BUT if you                       |
|      want to do an extremely  accurate calculation you might also keep the  |
|      reciprocal projection scheme          (i.e. LREAL=.FALSE.)             |
|                                                                             |
 ----------------------------------------------------------------------------- 

  PAW_PBE C_GW_new 19Mar2012            :
 energy of atom  1       EATOM= -147.1560
 kinetic energy error for atom=    0.0288 (will be added to EATOM!!)
 PAW_PBE N_GW_new 19Mar2012             :
 energy of atom  2       EATOM= -264.5486
 kinetic energy error for atom=    0.0732 (will be added to EATOM!!)
 
 
 POSCAR: C                                       
  positions in direct lattice
  velocities in cartesian coordinates
 exchange correlation table for  LEXCH =        8
   RHO(1)=    0.500       N(1)  =     2000
   RHO(2)=  100.500       N(2)  =     4000
 


--------------------------------------------------------------------------------------------------------


 ion  position               nearest neighbor table
   1  1.000  1.000  1.000-  20 1.54  38 1.54  74 1.54   2 1.55
   2  0.063  0.063  0.063-   3 1.55   5 1.55   9 1.55   1 1.55
   3  0.000  0.000  0.250-  40 1.54  76 1.54   4 1.54   2 1.55
   4  0.063  0.063  0.313-  17 1.54  11 1.54   7 1.54   3 1.54
   5  0.000  0.250  0.000-  24 1.54  78 1.54   6 1.54   2 1.55
   6  0.063  0.313  0.063-  33 1.54  13 1.54   7 1.54   5 1.54
   7  1.000  0.250  0.250-   8 1.54   6 1.54   4 1.54  80 1.55
   8  0.062  0.313  0.313-   7 1.54  15 1.54  21 1.55  35 1.55
   9  0.250  0.000  0.000-  28 1.54  46 1.54  10 1.54   2 1.55
  10  0.313  0.063  0.063-  65 1.54  13 1.54  11 1.54   9 1.54
  11  0.250  1.000  0.250-  12 1.54  10 1.54   4 1.54  48 1.55
  12  0.313  0.062  0.313-  11 1.54  15 1.54  25 1.55  67 1.55
  13  0.250  0.250  1.000-  14 1.54  10 1.54   6 1.54  32 1.55
  14  0.313  0.313  0.062-  13 1.54  15 1.54  41 1.55  69 1.55
  15  0.250  0.250  0.250-  16 1.54  12 1.54  14 1.54   8 1.54
  16  0.312  0.312  0.312-  15 1.54  29 1.55  43 1.55  71 1.55
  17  0.000  0.000  0.500-  18 1.54   4 1.54  54 1.55  90 1.55
  18  0.063  0.063  0.562-  21 1.54  25 1.54  17 1.54  19 1.54
  19  0.000  0.000  0.750-  18 1.54  20 1.55  56 1.55  92 1.55
  20  0.063  0.063  0.812-  23 1.54  27 1.54   1 1.54  19 1.55
  21  0.000  0.249  0.500-  18 1.54   8 1.55  22 1.55  94 1.56
  22  0.062  0.313  0.563-  29 1.54  23 1.54  21 1.55  49 1.55
  23  1.000  0.250  0.750-  20 1.54  22 1.54  24 1.54  96 1.55
  24  0.063  0.313  0.812-  31 1.54  51 1.54   5 1.54  23 1.54
  25  0.249  0.000  0.500-  18 1.54  12 1.55  26 1.55  62 1.56
  26  0.313  0.062  0.563-  29 1.54  27 1.54  25 1.55  81 1.55
  27  0.250  1.000  0.750-  20 1.54  26 1.54  28 1.54  64 1.55
  28  0.313  0.063  0.812-  31 1.54  83 1.54   9 1.54  27 1.54
  29  0.250  0.250  0.500-  30 1.54  26 1.54  22 1.54  16 1.55
  30  0.312  0.312  0.562-  29 1.54  31 1.55  57 1.55  85 1.55
  31  0.250  0.250  0.750-  24 1.54  28 1.54  30 1.55  32 1.55
  32  0.313  0.313  0.812-  59 1.54  87 1.54  13 1.55  31 1.55
  33  0.000  0.500  0.000-  34 1.54   6 1.54  52 1.55 106 1.55
  34  0.063  0.562  0.063-  35 1.54  41 1.54  33 1.54  37 1.54
  35  0.000  0.500  0.249-  34 1.54   8 1.55  36 1.55 108 1.56
  36  0.062  0.563  0.313-  43 1.54  39 1.54  35 1.55  49 1.55
  37  0.000  0.750  0.000-  34 1.54  38 1.55  56 1.55 110 1.55
  38  0.063  0.812  0.063-  39 1.54  45 1.54   1 1.54  37 1.55
  39  1.000  0.750  0.250-  38 1.54  36 1.54  40 1.54 112 1.55
  40  0.063  0.812  0.313-  47 1.54  53 1.54   3 1.54  39 1.54
  41  0.249  0.500  0.000-  34 1.54  14 1.55  42 1.55  60 1.56
  42  0.313  0.563  0.062-  43 1.54  45 1.54  41 1.55  97 1.55
  43  0.250  0.500  0.250-  44 1.54  42 1.54  36 1.54  16 1.55
  44  0.312  0.562  0.312-  43 1.54  47 1.55  57 1.55  99 1.55
  45  0.250  0.750  1.000-  38 1.54  42 1.54  46 1.54  64 1.55
  46  0.313  0.812  0.063-  47 1.54 101 1.54   9 1.54  45 1.54
  47  0.250  0.750  0.250-  40 1.54  46 1.54  44 1.55  48 1.55
  48  0.313  0.812  0.313-  61 1.54 103 1.54  11 1.55  47 1.55
  49  0.001  0.500  0.500-  50 1.53  36 1.55  22 1.55 120 1.55
  50  0.063  0.562  0.562-  49 1.53  57 1.53  53 1.54  51 1.54
  51  0.000  0.500  0.750-  50 1.54  24 1.54  52 1.54 122 1.55
  52  0.064  0.562  0.812-  55 1.54  51 1.54  33 1.55  59 1.56
  53  0.000  0.750  0.500-  50 1.54  40 1.54  54 1.54 124 1.55
  54  0.064  0.812  0.562-  55 1.54  53 1.54  17 1.55  61 1.56
  55  0.000  0.750  0.750-  52 1.54  54 1.54  56 1.54 126 1.55
  56  0.063  0.812  0.812-  55 1.54  37 1.55  19 1.55  63 1.55
  57  0.249  0.500  0.500-  50 1.53  58 1.54  30 1.55  44 1.55
  58  0.316  0.559  0.559- 127 1.47  57 1.54  61 1.56  59 1.56
  59  0.253  0.499  0.748-  32 1.54  60 1.55  58 1.56  52 1.56
  60  0.316  0.562  0.811- 113 1.49  63 1.54  59 1.55  41 1.56
  61  0.253  0.748  0.499-  48 1.54  62 1.55  58 1.56  54 1.56
  62  0.316  0.811  0.562- 115 1.49  63 1.54  61 1.55  25 1.56
  63  0.251  0.749  0.749-  64 1.54  62 1.54  60 1.54  56 1.55
  64  0.313  0.812  0.812- 117 1.54  63 1.54  27 1.55  45 1.55
  65  0.500  0.000  0.000-  66 1.54  10 1.54  84 1.55 102 1.55
  66  0.562  0.063  0.063-  67 1.54  69 1.54  65 1.54  73 1.54
  67  0.500  0.000  0.249-  66 1.54  12 1.55  68 1.55 104 1.56
  68  0.563  0.062  0.313-  71 1.54  75 1.54  67 1.55  81 1.55
  69  0.500  0.249  0.000-  66 1.54  14 1.55  70 1.55  88 1.56
  70  0.563  0.313  0.062-  71 1.54  77 1.54  69 1.55  97 1.55
  71  0.500  0.250  0.250-  72 1.54  70 1.54  68 1.54  16 1.55
  72  0.562  0.312  0.312-  71 1.54  79 1.55  85 1.55  99 1.55
  73  0.750  0.000  0.000-  66 1.54  74 1.55  92 1.55 110 1.55
  74  0.812  0.063  0.063-  75 1.54  77 1.54   1 1.54  73 1.55
  75  0.750  1.000  0.250-  74 1.54  68 1.54  76 1.54 112 1.55
  76  0.812  0.063  0.313-  79 1.54  89 1.54   3 1.54  75 1.54
  77  0.750  0.250  1.000-  74 1.54  70 1.54  78 1.54  96 1.55
  78  0.812  0.313  0.063-  79 1.54 105 1.54   5 1.54  77 1.54
  79  0.750  0.250  0.250-  76 1.54  78 1.54  72 1.55  80 1.55
  80  0.812  0.313  0.313-  93 1.54 107 1.54   7 1.55  79 1.55
  81  0.500  0.001  0.500-  82 1.53  68 1.55  26 1.55 116 1.55
  82  0.562  0.063  0.562-  81 1.53  85 1.53  83 1.54  89 1.54
  83  0.500  0.000  0.750-  82 1.54  28 1.54  84 1.54 118 1.55
  84  0.562  0.064  0.812-  91 1.54  83 1.54  65 1.55  87 1.56
  85  0.500  0.249  0.500-  82 1.53  86 1.54  30 1.55  72 1.55
  86  0.559  0.316  0.559- 127 1.47  85 1.54  93 1.56  87 1.56
  87  0.499  0.253  0.748-  32 1.54  88 1.55  86 1.56  84 1.56
  88  0.562  0.316  0.811- 113 1.49  95 1.54  87 1.55  69 1.56
  89  0.750  0.000  0.500-  82 1.54  76 1.54  90 1.54 124 1.55
  90  0.812  0.064  0.562-  91 1.54  89 1.54  17 1.55  93 1.56
  91  0.750  0.000  0.750-  84 1.54  90 1.54  92 1.54 126 1.55
  92  0.812  0.063  0.812-  91 1.54  73 1.55  19 1.55  95 1.55
  93  0.748  0.253  0.499-  80 1.54  94 1.55  86 1.56  90 1.56
  94  0.811  0.316  0.562- 119 1.49  95 1.54  93 1.55  21 1.56
  95  0.749  0.251  0.749-  96 1.54  94 1.54  88 1.54  92 1.55
  96  0.812  0.313  0.812- 121 1.54  95 1.54  23 1.55  77 1.55
  97  0.500  0.500  0.001-  98 1.53  70 1.55  42 1.55 114 1.55
  98  0.562  0.562  0.063-  97 1.53  99 1.53 101 1.54 105 1.54
  99  0.500  0.500  0.249-  98 1.53 100 1.54  44 1.55  72 1.55
 100  0.559  0.559  0.316- 127 1.47  99 1.54 107 1.56 103 1.56
 101  0.500  0.750  0.000-  98 1.54  46 1.54 102 1.54 118 1.55
 102  0.562  0.812  0.064- 109 1.54 101 1.54  65 1.55 103 1.56
 103  0.499  0.748  0.253-  48 1.54 104 1.55 100 1.56 102 1.56
 104  0.562  0.811  0.316- 115 1.49 111 1.54 103 1.55  67 1.56
 105  0.750  0.500  0.000-  98 1.54  78 1.54 106 1.54 122 1.55
 106  0.812  0.562  0.064- 109 1.54 105 1.54  33 1.55 107 1.56
 107  0.748  0.499  0.253-  80 1.54 108 1.55 100 1.56 106 1.56
 108  0.811  0.562  0.316- 119 1.49 111 1.54 107 1.55  35 1.56
 109  0.750  0.750  0.000- 102 1.54 106 1.54 110 1.54 126 1.55
 110  0.812  0.812  0.063- 109 1.54  73 1.55  37 1.55 111 1.55
 111  0.749  0.749  0.251- 112 1.54 108 1.54 104 1.54 110 1.55
 112  0.812  0.812  0.313- 123 1.54 111 1.54  39 1.55  75 1.55
 113  0.497  0.497  0.763- 114 1.49  88 1.49  60 1.49
 114  0.562  0.562  0.813- 113 1.49 117 1.55 121 1.55  97 1.55
 115  0.497  0.763  0.497- 116 1.49 104 1.49  62 1.49
 116  0.562  0.813  0.562- 115 1.49 117 1.55 123 1.55  81 1.55
 117  0.500  0.750  0.750-  64 1.54 118 1.55 116 1.55 114 1.55
 118  0.562  0.813  0.813- 125 1.55 117 1.55  83 1.55 101 1.55
 119  0.763  0.497  0.497- 120 1.49 108 1.49  94 1.49
 120  0.813  0.562  0.562- 119 1.49 121 1.55 123 1.55  49 1.55
 121  0.750  0.500  0.750-  96 1.54 122 1.55 120 1.55 114 1.55
 122  0.813  0.562  0.813- 125 1.55 121 1.55  51 1.55 105 1.55
 123  0.750  0.750  0.500- 112 1.54 124 1.55 120 1.55 116 1.55
 124  0.813  0.813  0.562- 125 1.55 123 1.55  53 1.55  89 1.55
 125  0.750  0.750  0.750- 126 1.54 122 1.55 124 1.55 118 1.55
 126  0.813  0.813  0.813- 125 1.54 109 1.55  91 1.55  55 1.55
 127  0.494  0.494  0.494-  58 1.47  86 1.47 100 1.47
 
  LATTYP: Found a face centered cubic cell.
 ALAT       =    14.2684036126
  
  Lattice vectors:
  
 A1 = (   7.1342018063,   7.1342018063,   0.0000000000)
 A2 = (   0.0000000000,   7.1342018063,   7.1342018063)
 A3 = (   7.1342018063,   0.0000000000,   7.1342018063)


Analysis of symmetry for initial positions (statically):
=====================================================================
 Subroutine PRICEL returns:
 Original cell was already a primitive cell.
 

 Routine SETGRP: Setting up the symmetry group for a 
 face centered cubic supercell.


 Subroutine GETGRP returns: Found  6 space group operations
 (whereof  6 operations were pure point group operations)
 out of a pool of 48 trial point group operations.


The static configuration has the point symmetry C_3v.


Analysis of symmetry for dynamics (positions and initial velocities):
=====================================================================
 Subroutine PRICEL returns:
 Original cell was already a primitive cell.
 

 Routine SETGRP: Setting up the symmetry group for a 
 face centered cubic supercell.


 Subroutine GETGRP returns: Found  6 space group operations
 (whereof  6 operations were pure point group operations)
 out of a pool of 48 trial point group operations.


The dynamic configuration has the point symmetry C_3v.


Analysis of magnetic symmetry:
=====================================================================
 Subroutine PRICEL returns:
 Original cell was already a primitive cell.
 

 Subroutine MAGSYM returns: Found  6 space group operations
 (whereof  6 operations were pure point group operations)
 out of a pool of  6 trial space group operations
 (whereof  6 operations were pure point group operations)
 and found also     1 'primitive' translations


The magnetic configuration has the point symmetry C_3v.
 
 
 KPOINTS: Automatically generated mesh            

Automatic generation of k-mesh.
Space group operators:
 irot       det(A)        alpha          n_x          n_y          n_z        tau_x        tau_y        tau_z
    1     1.000000     0.000000     1.000000     0.000000     0.000000     0.000000     0.000000     0.000000
    2     1.000000   120.000000    -0.577350    -0.577350    -0.577350     0.000000     0.000000     0.000000
    3     1.000000   120.000000     0.577350     0.577350     0.577350     0.000000     0.000000     0.000000
    4    -1.000000   180.000000     0.707107    -0.707107     0.000000     0.000000     0.000000     0.000000
    5    -1.000000   180.000000     0.707107     0.000000    -0.707107     0.000000     0.000000     0.000000
    6    -1.000000   180.000000     0.000000    -0.707107     0.707107     0.000000     0.000000     0.000000
 
 Subroutine IBZKPT returns following result:
 ===========================================
 
 Found      1 irreducible k-points:
 
 Following reciprocal coordinates:
            Coordinates               Weight
  0.000000  0.000000  0.000000      1.000000
 
 Following cartesian coordinates:
            Coordinates               Weight
  0.000000  0.000000  0.000000      1.000000
 
 
 Subroutine IBZKPT_HF returns following result:
 ==============================================
 
 Found      1 k-points in 1st BZ
 the following      1 k-points will be used (e.g. in the exchange kernel)
 Following reciprocal coordinates:   # in IRBZ
  0.000000  0.000000  0.000000    1.00000000   1 t-inv F


--------------------------------------------------------------------------------------------------------




 Dimension of arrays:
   k-points           NKPTS =      1   k-points in BZ     NKDIM =      1   number of bands    NBANDS=    280
   number of dos      NEDOS =    301   number of ions     NIONS =    127
   non local maximal  LDIM  =      8   non local SUM 2l+1 LMDIM =     22
   total plane-waves  NPLWV = 125000
   max r-space proj   IRMAX =      1   max aug-charges    IRDMAX=   1963
   dimension x,y,z NGX =    50 NGY =   50 NGZ =   50
   dimension x,y,z NGXF=   100 NGYF=  100 NGZF=  100
   support grid    NGXF=   100 NGYF=  100 NGZF=  100
   ions per type =             126   1
 NGX,Y,Z   is equivalent  to a cutoff of   8.24,  8.24,  8.24 a.u.
 NGXF,Y,Z  is equivalent  to a cutoff of  16.48, 16.48, 16.48 a.u.


 I would recommend the setting:
   dimension x,y,z NGX =    49 NGY =   49 NGZ =   49
 SYSTEM =  unknown system                          
 POSCAR =  C                                       

 Startparameter for this run:
   NWRITE =      2    write-flag & timer
   PREC   = normal    normal or accurate (medium, high low for compatibility)
   ISTART =      0    job   : 0-new  1-cont  2-samecut
   ICHARG =      2    charge: 1-file 2-atom 10-const
   ISPIN  =      2    spin polarized calculation?
   LNONCOLLINEAR =      F non collinear calculations
   LSORBIT =      F    spin-orbit coupling
   INIWAV =      1    electr: 0-lowe 1-rand  2-diag
   LASPH  =      F    aspherical Exc in radial PAW
   METAGGA=      F    non-selfconsistent MetaGGA calc.

 Electronic Relaxation 1
   ENCUT  =  400.0 eV  29.40 Ry    5.42 a.u.  16.45 16.45 16.45*2*pi/ulx,y,z
   ENINI  =  400.0     initial cutoff
   ENAUG  = 1213.9 eV  augmentation charge cutoff
   NELM   =     60;   NELMIN=  2; NELMDL= -5     # of ELM steps 
   EDIFF  = 0.1E-03   stopping-criterion for ELM
   LREAL  =      F    real-space projection
   NLSPLINE    = F    spline interpolate recip. space projectors
   LCOMPAT=      F    compatible to vasp.4.4
   GGA_COMPAT  = T    GGA compatible to vasp.4.4-vasp.4.6
   LMAXPAW     = -100 max onsite density
   LMAXMIX     =    2 max onsite mixed and CHGCAR
   VOSKOWN=      0    Vosko Wilk Nusair interpolation
   ROPT   =    0.00000   0.00000
 Ionic relaxation
   EDIFFG = 0.1E-02   stopping-criterion for IOM
   NSW    =      0    number of steps for IOM
   NBLOCK =      1;   KBLOCK =      1    inner block; outer block 
   IBRION =     -1    ionic relax: 0-MD 1-quasi-New 2-CG
   NFREE  =      0    steps in history (QN), initial steepest desc. (CG)
   ISIF   =      0    stress and relaxation
   IWAVPR =     10    prediction:  0-non 1-charg 2-wave 3-comb
   ISYM   =      3    0-nonsym 1-usesym 2-fastsym
   LCORR  =      T    Harris-Foulkes like correction to forces

   POTIM  = 0.5000    time-step for ionic-motion
   TEIN   =    0.0    initial temperature
   TEBEG  =    0.0;   TEEND  =   0.0 temperature during run
   SMASS  =  -3.00    Nose mass-parameter (am)
   estimated Nose-frequenzy (Omega)   =  0.10E-29 period in steps =****** mass=  -0.233E-26a.u.
   SCALEE = 1.0000    scale energy and forces
   NPACO  =    256;   APACO  = 16.0  distance and # of slots for P.C.
   PSTRESS=    0.0 pullay stress

  Mass of Ions in am
   POMASS =  12.01 14.00
  Ionic Valenz
   ZVAL   =   4.00  5.00
  Atomic Wigner-Seitz radii
   RWIGS  =  -1.00 -1.00
  virtual crystal weights 
   VCA    =   1.00  1.00
   NELECT =     510.0000    total number of electrons
   NUPDOWN=      -1.0000    fix difference up-down

 DOS related values:
   EMIN   =  10.00;   EMAX   =-10.00  energy-range for DOS
   EFERMI =   0.00
   ISMEAR =    -2;   SIGMA  =   0.00  broadening in eV -4-tet -1-fermi 0-gaus

 Electronic relaxation 2 (details)
   IALGO  =     38    algorithm
   LDIAG  =      T    sub-space diagonalisation (order eigenvalues)
   LSUBROT=      F    optimize rotation matrix (better conditioning)
   TURBO    =      0    0=normal 1=particle mesh
   IRESTART =      0    0=no restart 2=restart with 2 vectors
   NREBOOT  =      0    no. of reboots
   NMIN     =      0    reboot dimension
   EREF     =   0.00    reference energy to select bands
   IMIX   =      1    mixing-type and parameters
     AMIX     =   0.40;   BMIX     =  1.00
     AMIX_MAG =   1.60;   BMIX_MAG =  1.00
     AMIN     =   0.10
     WC   =   100.;   INIMIX=   1;  MIXPRE=   1;  MAXMIX= -45

 Intra band minimization:
   WEIMIN = 0.0000     energy-eigenvalue tresh-hold
   EBREAK =  0.89E-07  absolut break condition
   DEPER  =   0.30     relativ break condition  

   TIME   =   0.40     timestep for ELM

  volume/ion in A,a.u.               =       5.72        38.59
  Fermi-wavevector in a.u.,A,eV,Ry     =   1.455156  2.749846 28.810044  2.117478
  Thomas-Fermi vector in A             =   2.572223
 
 Write flags
   LWAVE  =      T    write WAVECAR
   LCHARG =      T    write CHGCAR
   LVTOT  =      F    write LOCPOT, total local potential
   LVHAR  =      F    write LOCPOT, Hartree potential only
   LELF   =      F    write electronic localiz. function (ELF)
   LORBIT =      0    0 simple, 1 ext, 2 COOP (PROOUT)


 Dipole corrections
   LMONO  =      F    monopole corrections only (constant potential shift)
   LDIPOL =      F    correct potential (dipole corrections)
   IDIPOL =      0    1-x, 2-y, 3-z, 4-all directions 
   EPSILON=  1.0000000 bulk dielectric constant

 Exchange correlation treatment:
   GGA     =    --    GGA type
   LEXCH   =     8    internal setting for exchange type
   VOSKOWN=      0    Vosko Wilk Nusair interpolation
   EXXOEP  =     0    0=HF, 1=EXX-LHF (local Hartree Fock) 2=EXX OEP
   LHFCALC =     T    Hartree Fock is set to
   LSYMGRAD=     F    symmetrize gradient (conserves proper symmetry)
   PRECFOCK=normal    Normal, Fast or Accurate (Low or Medium for compatibility)
   LRHFCALC=     F    long range Hartree Fock
   LRSCOR  =     F    long range correlation only (use DFT for short range part)
   LTHOMAS =     F    Thomas Fermi screening in HF
   LMODELHF=     F    short range full HF, long range fraction AEXX
   ENCUT4O =  -1.0   cutoff for four orbital integrals eV
   LMAXFOCK=     4    L truncation for augmentation on plane wave grid
   LMAXFOCKAE=  -1    L truncation for all-electron charge restoration on plane wave grid
   NMAXFOCKAE=   1    number of basis functions for all-electron charge restoration
   LFOCKAEDFT=     F  apply the AE augmentation even for DFT
   NKREDX  =     1    reduce k-point grid by
   NKREDY  =     1    reduce k-point grid by
   NKREDZ  =     1    reduce k-point grid by
   SHIFTRED=     F    shift reduced grid of Gamma
   HFKIDENT=     F    idential grid for each k-point
   ODDONLY =     F    use only odd q-grid points
   EVENONLY=     F    use only even q-grid points
   HFALPHA =   -1.0000 decay constant for conv. correction
   MCALPHA =    0.0000 extent of test-charge in conv. correction in multipole expansion
   AEXX    =    0.0000 exact exchange contribution
   HFSCREEN=    0.0000 screening length (either q_TF or 0.3 A-1)
   HFSCREENC=   0.0000 screening length for correlation (either q_TF or 0.3 A-1)
   HFRCUT  =    0.0000 spherical cutoff for potential kernel
   ALDAX   =    1.0000 LDA exchange part
   AGGAX   =    1.0000 GGA exchange part
   ALDAC   =    1.0000 LDA correlation
   AGGAC   =    1.0000 GGA correlation
   NBANDSGWLOW=     1    first orbital included in HF term
   ENCUTFOCK=  -1.0 apply spherical cutoff to Coloumb kernel
 Linear response parameters
   LEPSILON=     F    determine dielectric tensor
   LRPA    =     F    only Hartree local field effects (RPA)
   LNABLA  =     F    use nabla operator in PAW spheres
   LVEL    =     F    velocity operator in full k-point grid
   LINTERFAST=   F  fast interpolation
   KINTER  =     0    interpolate to denser k-point grid
   CSHIFT  =0.1000    complex shift for real part using Kramers Kronig
   OMEGAMAX=  -1.0    maximum frequency
   DEG_THRESHOLD= 0.2000000E-02 threshold for treating states as degnerate
   RTIME   =    0.100 relaxation time in fs

 Orbital magnetization related:
   ORBITALMAG=     F  switch on orbital magnetization
   LCHIMAG   =     F  perturbation theory with respect to B field
   DQ        =  0.001000  dq finite difference perturbation B field



--------------------------------------------------------------------------------------------------------


 Static calculation
 charge density and potential will be updated during run
 spin polarized calculation
 Variant of blocked Davidson
 Davidson routine will perform the subspace rotation
 perform sub-space diagonalisation
    after iterative eigenvector-optimisation
 Kerker-like  mixing scheme
 using additional bands           25
 reciprocal scheme for non local part
 use partial core corrections
 calculate Harris-corrections to forces 
   (improved forces if not selfconsistent)
 use gradient corrections 
 use of overlap-Matrix (Vanderbilt PP)
 partial occupancies read from INCAR or WAVECAR (fixed during run)


--------------------------------------------------------------------------------------------------------


  energy-cutoff  :      400.00
  volume of cell :      726.22
      direct lattice vectors                 reciprocal lattice vectors
     7.134201806  7.134201806  0.000000000     0.070084925  0.070084925 -0.070084925
     0.000000000  7.134201806  7.134201806    -0.070084925  0.070084925  0.070084925
     7.134201806  0.000000000  7.134201806     0.070084925 -0.070084925  0.070084925

  length of vectors
    10.089284951 10.089284951 10.089284951     0.121390651  0.121390651  0.121390651


 
 k-points in units of 2pi/SCALE and weight: Automatically generated mesh            
   0.00000000  0.00000000  0.00000000       1.000
 
 k-points in reciprocal lattice and weights: Automatically generated mesh            
   0.00000000  0.00000000  0.00000000       1.000
 
 position of ions in fractional coordinates (direct lattice) 
   0.99996714  0.99996714  0.99996714
   0.06250393  0.06250393  0.06250393
   0.00000417  0.00000417  0.25005808
   0.06253930  0.06253930  0.31253636
   0.00000417  0.25005808  0.00000417
   0.06253930  0.31253636  0.06253930
   0.99996220  0.25008516  0.25008516
   0.06244666  0.31255832  0.31255832
   0.25005808  0.00000417  0.00000417
   0.31253636  0.06253930  0.06253930
   0.25008516  0.99996220  0.25008516
   0.31255832  0.06244666  0.31255832
   0.25008516  0.25008516  0.99996220
   0.31255832  0.31255832  0.06244666
   0.24994966  0.24994966  0.24994966
   0.31242409  0.31242409  0.31242409
   0.00016754  0.00016754  0.49995280
   0.06259623  0.06259623  0.56245325
   0.00000699  0.00000699  0.74991457
   0.06252046  0.06252046  0.81244210
   0.00034630  0.24927854  0.50016708
   0.06239975  0.31254459  0.56252812
   0.99989553  0.25002432  0.75003529
   0.06252214  0.31250367  0.81247245
   0.24927854  0.00034630  0.50016708
   0.31254459  0.06239975  0.56252812
   0.25002432  0.99989553  0.75003529
   0.31250367  0.06252214  0.81247245
   0.24975939  0.24975939  0.50013514
   0.31208644  0.31208644  0.56241814
   0.24994706  0.24994706  0.74999034
   0.31279355  0.31279355  0.81216644
   0.00016754  0.49995280  0.00016754
   0.06259623  0.56245325  0.06259623
   0.00034630  0.50016708  0.24927854
   0.06239975  0.56252812  0.31254459
   0.00000699  0.74991457  0.00000699
   0.06252046  0.81244210  0.06252046
   0.99989553  0.75003529  0.25002432
   0.06252214  0.81247245  0.31250367
   0.24927854  0.50016708  0.00034630
   0.31254459  0.56252812  0.06239975
   0.24975939  0.50013514  0.24975939
   0.31208644  0.56241814  0.31208644
   0.25002432  0.75003529  0.99989553
   0.31250367  0.81247245  0.06252214
   0.24994706  0.74999034  0.24994706
   0.31279355  0.81216644  0.31279355
   0.00075983  0.50032633  0.50032633
   0.06260752  0.56241805  0.56241805
   0.00026206  0.50002762  0.74992081
   0.06366639  0.56241960  0.81166894
   0.00026206  0.74992081  0.50002762
   0.06366639  0.81166894  0.56241960
   0.00047864  0.74985017  0.74985017
   0.06321450  0.81225043  0.81225043
   0.24872941  0.49984401  0.49984401
   0.31581952  0.55944613  0.55944613
   0.25282341  0.49939906  0.74843075
   0.31558503  0.56202946  0.81100618
   0.25282341  0.74843075  0.49939906
   0.31558503  0.81100618  0.56202946
   0.25116566  0.74948364  0.74948364
   0.31292299  0.81224467  0.81224467
   0.49995280  0.00016754  0.00016754
   0.56245325  0.06259623  0.06259623
   0.50016708  0.00034630  0.24927854
   0.56252812  0.06239975  0.31254459
   0.50016708  0.24927854  0.00034630
   0.56252812  0.31254459  0.06239975
   0.50013514  0.24975939  0.24975939
   0.56241814  0.31208644  0.31208644
   0.74991457  0.00000699  0.00000699
   0.81244210  0.06252046  0.06252046
   0.75003529  0.99989553  0.25002432
   0.81247245  0.06252214  0.31250367
   0.75003529  0.25002432  0.99989553
   0.81247245  0.31250367  0.06252214
   0.74999034  0.24994706  0.24994706
   0.81216644  0.31279355  0.31279355
   0.50032633  0.00075983  0.50032633
   0.56241805  0.06260752  0.56241805
   0.50002762  0.00026206  0.74992081
   0.56241960  0.06366639  0.81166894
   0.49984401  0.24872941  0.49984401
   0.55944613  0.31581952  0.55944613
   0.49939906  0.25282341  0.74843075
   0.56202946  0.31558503  0.81100618
   0.74992081  0.00026206  0.50002762
   0.81166894  0.06366639  0.56241960
   0.74985017  0.00047864  0.74985017
   0.81225043  0.06321450  0.81225043
   0.74843075  0.25282341  0.49939906
   0.81100618  0.31558503  0.56202946
   0.74948364  0.25116566  0.74948364
   0.81224467  0.31292299  0.81224467
   0.50032633  0.50032633  0.00075983
   0.56241805  0.56241805  0.06260752
   0.49984401  0.49984401  0.24872941
   0.55944613  0.55944613  0.31581952
   0.50002762  0.74992081  0.00026206
   0.56241960  0.81166894  0.06366639
   0.49939906  0.74843075  0.25282341
   0.56202946  0.81100618  0.31558503
   0.74992081  0.50002762  0.00026206
   0.81166894  0.56241960  0.06366639
   0.74843075  0.49939906  0.25282341
   0.81100618  0.56202946  0.31558503
   0.74985017  0.74985017  0.00047864
   0.81225043  0.81225043  0.06321450
   0.74948364  0.74948364  0.25116566
   0.81224467  0.81224467  0.31292299
   0.49654661  0.49654661  0.76340433
   0.56201534  0.56201534  0.81266351
   0.49654661  0.76340433  0.49654661
   0.56201534  0.81266351  0.56201534
   0.50012493  0.74982306  0.74982306
   0.56240844  0.81250160  0.81250160
   0.76340433  0.49654661  0.49654661
   0.81266351  0.56201534  0.56201534
   0.74982306  0.50012493  0.74982306
   0.81250160  0.56240844  0.81250160
   0.74982306  0.74982306  0.50012493
   0.81250160  0.81250160  0.56240844
   0.75004417  0.75004417  0.75004417
   0.81251883  0.81251883  0.81251883
   0.49377328  0.49377328  0.49377328
 
 position of ions in cartesian coordinates  (Angst):
  14.26793471 14.26793471 14.26793471
   0.89183133  0.89183133  0.89183133
   1.78399460  0.00005956  1.78399460
   2.67586546  0.89233599  2.67586546
   0.00005956  1.78399460  1.78399460
   0.89233599  2.67586546  2.67586546
   8.91809017  8.91809017  3.56831601
   2.67536118  2.67536118  4.45970822
   1.78399460  1.78399460  0.00005956
   2.67586546  2.67586546  0.89233599
   3.56831601  8.91809017  8.91809017
   4.45970822  2.67536118  2.67536118
   8.91809017  3.56831601  8.91809017
   2.67536118  4.45970822  2.67536118
   3.56638269  3.56638269  3.56638269
   4.45779302  4.45779302  4.45779302
   3.56795945  0.00239059  3.56795945
   4.45922914  0.89314829  4.45922914
   5.35009176  0.00009980  5.35009176
   6.24215942  0.89206711  6.24215942
   3.57076347  1.78087401  5.34669627
   4.45836154  2.67492861  6.24294529
  12.48435965  8.91718045  7.13462708
   6.24238802  2.67550987  8.02580669
   5.34669627  1.78087401  3.57076347
   6.24294529  2.67492861  4.45836154
   7.13462708  8.91718045 12.48435965
   8.02580669  2.67550987  6.24238802
   5.34989894  3.56366778  5.34989894
   6.23889218  4.45297532  6.23889218
   7.13375515  3.56634548  7.13375515
   8.02569157  4.46306457  8.02569157
   0.00239059  3.56795945  3.56795945
   0.89314829  4.45922914  4.45922914
   1.78087401  3.57076347  5.34669627
   2.67492861  4.45836154  6.24294529
   0.00009980  5.35009176  5.35009176
   0.89206711  6.24215942  6.24215942
   8.91718045 12.48435965  7.13462708
   2.67550987  6.24238802  8.02580669
   1.78087401  5.34669627  3.57076347
   2.67492861  6.24294529  4.45836154
   3.56366778  5.34989894  5.34989894
   4.45297532  6.23889218  6.23889218
   8.91718045  7.13462708 12.48435965
   2.67550987  8.02580669  6.24238802
   3.56634548  7.13375515  7.13375515
   4.46306457  8.02569157  8.02569157
   3.57484982  3.57484982  7.13885807
   4.45905860  4.45905860  8.02480778
   5.35195601  3.56916758  8.91738438
   6.24481896  4.46662384  9.80302499
   3.56916758  5.35195601  8.91738438
   4.46662384  6.24481896  9.80302499
   5.35299713  5.35299713 10.69916482
   6.24574345  6.24574345 11.58951693
   5.34047383  5.34047383  7.13197606
   6.24432185  6.24432185  7.98240325
   7.14314918  5.36650690  8.90226966
   8.03732904  6.26107886  9.79551329
   5.36650690  7.14314918  8.90226966
   6.26107886  8.03732904  9.79551329
   7.13883400  7.13883400 10.69393505
   8.02717320  8.02717320 11.58943480
   3.56795945  3.56795945  0.00239059
   4.45922914  4.45922914  0.89314829
   5.34669627  3.57076347  1.78087401
   6.24294529  4.45836154  2.67492861
   3.57076347  5.34669627  1.78087401
   4.45836154  6.24294529  2.67492861
   5.34989894  5.34989894  3.56366778
   6.23889218  6.23889218  4.45297532
   5.35009176  5.35009176  0.00009980
   6.24215942  6.24215942  0.89206711
   7.13462708 12.48435965  8.91718045
   8.02580669  6.24238802  2.67550987
  12.48435965  7.13462708  8.91718045
   6.24238802  8.02580669  2.67550987
   7.13375515  7.13375515  3.56634548
   8.02569157  8.02569157  4.46306457
   7.13885807  3.57484982  3.57484982
   8.02480778  4.45905860  4.45905860
   8.91738438  3.56916758  5.35195601
   9.80302499  4.46662384  6.24481896
   7.13197606  5.34047383  5.34047383
   7.98240325  6.24432185  6.24432185
   8.90226966  5.36650690  7.14314918
   9.79551329  6.26107886  8.03732904
   8.91738438  5.35195601  3.56916758
   9.80302499  6.24481896  4.46662384
  10.69916482  5.35299713  5.35299713
  11.58951693  6.24574345  6.24574345
   8.90226966  7.14314918  5.36650690
   9.79551329  8.03732904  6.26107886
  10.69393505  7.13883400  7.13883400
  11.58943480  8.02717320  8.02717320
   3.57484982  7.13885807  3.57484982
   4.45905860  8.02480778  4.45905860
   5.34047383  7.13197606  5.34047383
   6.24432185  7.98240325  6.24432185
   3.56916758  8.91738438  5.35195601
   4.46662384  9.80302499  6.24481896
   5.36650690  8.90226966  7.14314918
   6.26107886  9.79551329  8.03732904
   5.35195601  8.91738438  3.56916758
   6.24481896  9.80302499  4.46662384
   7.14314918  8.90226966  5.36650690
   8.03732904  9.79551329  6.26107886
   5.35299713 10.69916482  5.35299713
   6.24574345 11.58951693  6.24574345
   7.13883400 10.69393505  7.13883400
   8.02717320 11.58943480  8.02717320
   8.98874427  7.08492743  8.98874427
   9.80723632  8.01906165  9.80723632
   7.08492743  8.98874427  8.98874427
   8.01906165  9.80723632  9.80723632
   8.91738116  8.91738116 10.69877801
   9.80888573  9.80888573 11.59310083
   8.98874427  8.98874427  7.08492743
   9.80723632  9.80723632  8.01906165
  10.69877801  8.91738116  8.91738116
  11.59310083  9.80888573  9.80888573
   8.91738116 10.69877801  8.91738116
   9.80888573 11.59310083  9.80888573
  10.70193301 10.70193301 10.70193301
  11.59334666 11.59334666 11.59334666
   7.04535645  7.04535645  7.04535645
 


--------------------------------------------------------------------------------------------------------


 use seriel FFT for wavefunctions x direction half grid
 k-point  1 :   0.0000 0.0000 0.0000  plane waves:    6662

 maximum and minimum number of plane-waves per node :      6662     6662

 maximum number of plane-waves:      6662
 maximum index in each direction: 
   IXMAX=   16   IYMAX=   16   IZMAX=   16
   IXMIN=    0   IYMIN=  -13   IZMIN=  -13

 WARNING: aliasing errors must be expected set NGX to  66 to avoid them
 WARNING: aliasing errors must be expected set NGY to  60 to avoid them
 WARNING: aliasing errors must be expected set NGZ to  60 to avoid them
 aliasing errors are usually negligible using standard VASP settings
 and one can safely disregard these warnings

 serial   3D FFT for wavefunctions
 parallel 3D FFT for charge:
    minimum data exchange during FFTs selected (reduces bandwidth)

 
 Radii for the augmentation spheres in the non-local exchange
 for species   1 augmentation radius   0.820 (default was   0.656)
       energy cutoff for augmentation   1600.0
 for species   2 augmentation radius   0.834 (default was   0.667)
       energy cutoff for augmentation   1600.0
  SETUP_FOCK is finished

 total amount of memory used by VASP on root node   256596. kBytes
========================================================================

   base      :      30000. kBytes
   nonl-proj :      15882. kBytes
   fftplans  :      34720. kBytes
   grid      :      91360. kBytes
   one-center:       2950. kBytes
   HF        :        193. kBytes
   nonlr-proj:      10976. kBytes
   wavefun   :      70515. kBytes
 
     INWAV:  cpu time    0.0000: real time    0.0000
 initial charge density was supplied:
 charge density of overlapping atoms calculated
 number of electron     509.0000000 magnetization     127.0000000
 keeping initial charge density in first step


--------------------------------------------------------------------------------------------------------


 Maximum index for augmentation-charges         1701 (set IRDMAX)


--------------------------------------------------------------------------------------------------------


 FEWALD executed in parallel
    FEWALD:  cpu time    0.2360: real time    0.0585


----------------------------------------- Iteration    1(   1)  ---------------------------------------


    POTLOK:  cpu time    1.3360: real time    0.7787
    SETDIJ:  cpu time    0.8400: real time    0.8387
     EDDAV:  cpu time   79.9200: real time   19.9882
       DOS:  cpu time    0.0040: real time    0.0001
    --------------------------------------------
      LOOP:  cpu time   82.1040: real time   21.6070

 eigenvalue-minimisations  :  1120
 total energy-change (2. order) : 0.4739779E+04  (-0.2720958E+05)
 number of electron     509.0000000 magnetization     127.0000000
 augmentation part      509.0000000 magnetization     127.0000000

 Free energy of the ion-electron system (eV)
  ---------------------------------------------------
  alpha Z        PSCENC =       342.58660385
  Ewald energy   TEWEN  =    -22017.52373621
  -Hartree energ DENC   =     -1236.19071285
  -exchange      EXHF   =         0.00000000
  -V(xc)+E(xc)   XCENC  =      1003.80909730
  PAW double counting   =     14624.74813730   -13934.22916061
  entropy T*S    EENTRO =         0.00000000
  eigenvalues    EBANDS =      7154.07328444
  atomic energy  EATOM  =     18802.50563071
  Solvation  Ediel_sol  =         0.00000000
  ---------------------------------------------------
  free energy    TOTEN  =      4739.77914393 eV

  energy without entropy =     4739.77914393  energy(sigma->0) =     4739.77914393
  exchange ACFDT corr.  =         0.00000000  see jH, gK, PRB 81, 115126


--------------------------------------------------------------------------------------------------------




----------------------------------------- Iteration    1(   2)  ---------------------------------------


     EDDAV:  cpu time  107.4560: real time   26.8740
       DOS:  cpu time    0.0000: real time    0.0001
    --------------------------------------------
      LOOP:  cpu time  107.4600: real time   26.8763

 eigenvalue-minimisations  :  1624
 total energy-change (2. order) :-0.5352482E+04  (-0.5203265E+04)
 number of electron     509.0000000 magnetization     127.0000000
 augmentation part      509.0000000 magnetization     127.0000000

 Free energy of the ion-electron system (eV)
  ---------------------------------------------------
  alpha Z        PSCENC =       342.58660385
  Ewald energy   TEWEN  =    -22017.52373621
  -Hartree energ DENC   =     -1236.19071285
  -exchange      EXHF   =         0.00000000
  -V(xc)+E(xc)   XCENC  =      1003.80909730
  PAW double counting   =     14624.74813730   -13934.22916061
  entropy T*S    EENTRO =         0.00000000
  eigenvalues    EBANDS =      1801.59153371
  atomic energy  EATOM  =     18802.50563071
  Solvation  Ediel_sol  =         0.00000000
  ---------------------------------------------------
  free energy    TOTEN  =      -612.70260680 eV

  energy without entropy =     -612.70260680  energy(sigma->0) =     -612.70260680
  exchange ACFDT corr.  =         0.00000000  see jH, gK, PRB 81, 115126


--------------------------------------------------------------------------------------------------------




----------------------------------------- Iteration    1(   3)  ---------------------------------------


     EDDAV:  cpu time   92.6080: real time   23.1600
       DOS:  cpu time    0.0000: real time    0.0001
    --------------------------------------------
      LOOP:  cpu time   92.6160: real time   23.1624

 eigenvalue-minimisations  :  1352
 total energy-change (2. order) :-0.4803099E+03  (-0.4743231E+03)
 number of electron     509.0000000 magnetization     127.0000000
 augmentation part      509.0000000 magnetization     127.0000000

 Free energy of the ion-electron system (eV)
  ---------------------------------------------------
  alpha Z        PSCENC =       342.58660385
  Ewald energy   TEWEN  =    -22017.52373621
  -Hartree energ DENC   =     -1236.19071285
  -exchange      EXHF   =         0.00000000
  -V(xc)+E(xc)   XCENC  =      1003.80909730
  PAW double counting   =     14624.74813730   -13934.22916061
  entropy T*S    EENTRO =         0.00000000
  eigenvalues    EBANDS =      1321.28165956
  atomic energy  EATOM  =     18802.50563071
  Solvation  Ediel_sol  =         0.00000000
  ---------------------------------------------------
  free energy    TOTEN  =     -1093.01248095 eV

  energy without entropy =    -1093.01248095  energy(sigma->0) =    -1093.01248095
  exchange ACFDT corr.  =         0.00000000  see jH, gK, PRB 81, 115126


--------------------------------------------------------------------------------------------------------




----------------------------------------- Iteration    1(   4)  ---------------------------------------


     EDDAV:  cpu time   96.9680: real time   24.2509
       DOS:  cpu time    0.0000: real time    0.0001
    --------------------------------------------
      LOOP:  cpu time   96.9760: real time   24.2537

 eigenvalue-minimisations  :  1432
 total energy-change (2. order) :-0.1704694E+02  (-0.1697880E+02)
 number of electron     509.0000000 magnetization     127.0000000
 augmentation part      509.0000000 magnetization     127.0000000

 Free energy of the ion-electron system (eV)
  ---------------------------------------------------
  alpha Z        PSCENC =       342.58660385
  Ewald energy   TEWEN  =    -22017.52373621
  -Hartree energ DENC   =     -1236.19071285
  -exchange      EXHF   =         0.00000000
  -V(xc)+E(xc)   XCENC  =      1003.80909730
  PAW double counting   =     14624.74813730   -13934.22916061
  entropy T*S    EENTRO =         0.00000000
  eigenvalues    EBANDS =      1304.23471668
  atomic energy  EATOM  =     18802.50563071
  Solvation  Ediel_sol  =         0.00000000
  ---------------------------------------------------
  free energy    TOTEN  =     -1110.05942384 eV

  energy without entropy =    -1110.05942384  energy(sigma->0) =    -1110.05942384
  exchange ACFDT corr.  =         0.00000000  see jH, gK, PRB 81, 115126


--------------------------------------------------------------------------------------------------------




----------------------------------------- Iteration    1(   5)  ---------------------------------------


     EDDAV:  cpu time  100.1280: real time   25.0423
       DOS:  cpu time    0.0000: real time    0.0001
    CHARGE:  cpu time    3.9640: real time    0.9910
    MIXING:  cpu time    0.0560: real time    0.0144
    --------------------------------------------
      LOOP:  cpu time  104.1560: real time   26.0499

 eigenvalue-minimisations  :  1488
 total energy-change (2. order) :-0.5052097E+00  (-0.5031762E+00)
 number of electron     509.3999854 magnetization     -72.9999998
 augmentation part        7.5037996 magnetization     -75.0058336

 Free energy of the ion-electron system (eV)
  ---------------------------------------------------
  alpha Z        PSCENC =       342.58660385
  Ewald energy   TEWEN  =    -22017.52373621
  -Hartree energ DENC   =     -1236.19071285
  -exchange      EXHF   =         0.00000000
  -V(xc)+E(xc)   XCENC  =      1003.80909730
  PAW double counting   =     14624.74813730   -13934.22916061
  entropy T*S    EENTRO =         0.00000000
  eigenvalues    EBANDS =      1303.72950697
  atomic energy  EATOM  =     18802.50563071
  Solvation  Ediel_sol  =         0.00000000
  ---------------------------------------------------
  free energy    TOTEN  =     -1110.56463354 eV

  energy without entropy =    -1110.56463354  energy(sigma->0) =    -1110.56463354
  exchange ACFDT corr.  =         0.00000000  see jH, gK, PRB 81, 115126


--------------------------------------------------------------------------------------------------------




----------------------------------------- Iteration    1(   6)  ---------------------------------------


    POTLOK:  cpu time    1.6120: real time    0.7666
    SETDIJ:  cpu time    0.8000: real time    0.8011
     EDDAV:  cpu time   86.1360: real time   21.5546
       DOS:  cpu time    0.0000: real time    0.0001
    CHARGE:  cpu time    3.9560: real time    0.9896
    MIXING:  cpu time    0.0600: real time    0.0144
    --------------------------------------------
      LOOP:  cpu time   92.5720: real time   24.1288

 eigenvalue-minimisations  :  1232
 total energy-change (2. order) :-0.1369727E+01  (-0.2907985E+01)
 number of electron     509.6399767 magnetization      47.0000003
 augmentation part        7.1925106 magnetization      45.3094367

 Free energy of the ion-electron system (eV)
  ---------------------------------------------------
  alpha Z        PSCENC =       342.58660385
  Ewald energy   TEWEN  =    -22017.52373621
  -Hartree energ DENC   =     -1480.09648423
  -exchange      EXHF   =         0.00000000
  -V(xc)+E(xc)   XCENC  =      1013.33462863
  PAW double counting   =     26822.00115217   -26140.31617161
  entropy T*S    EENTRO =         0.00000000
  eigenvalues    EBANDS =      1545.57401598
  atomic energy  EATOM  =     18802.50563071
  Solvation  Ediel_sol  =         0.00000000
  ---------------------------------------------------
  free energy    TOTEN  =     -1111.93436072 eV

  energy without entropy =    -1111.93436072  energy(sigma->0) =    -1111.93436072
  exchange ACFDT corr.  =         0.00000000  see jH, gK, PRB 81, 115126


--------------------------------------------------------------------------------------------------------




----------------------------------------- Iteration    1(   7)  ---------------------------------------


    POTLOK:  cpu time    1.2440: real time    0.7613
    SETDIJ:  cpu time    0.8040: real time    0.8039
     EDDAV:  cpu time   88.3840: real time   22.1165
       DOS:  cpu time    0.0000: real time    0.0001
    CHARGE:  cpu time    3.9560: real time    0.9894
    MIXING:  cpu time    0.0560: real time    0.0144
    --------------------------------------------
      LOOP:  cpu time   94.4520: real time   24.6885

 eigenvalue-minimisations  :  1272
 total energy-change (2. order) :-0.3401526E+01  (-0.1757193E+01)
 number of electron     509.7839715 magnetization     -24.9999991
 augmentation part        7.0854636 magnetization     -26.9522675

 Free energy of the ion-electron system (eV)
  ---------------------------------------------------
  alpha Z        PSCENC =       342.58660385
  Ewald energy   TEWEN  =    -22017.52373621
  -Hartree energ DENC   =     -1624.59350910
  -exchange      EXHF   =         0.00000000
  -V(xc)+E(xc)   XCENC  =      1023.72296844
  PAW double counting   =     35909.38363538   -35232.29297530
  entropy T*S    EENTRO =         0.00000000
  eigenvalues    EBANDS =      1680.87549502
  atomic energy  EATOM  =     18802.50563071
  Solvation  Ediel_sol  =         0.00000000
  ---------------------------------------------------
  free energy    TOTEN  =     -1115.33588721 eV

  energy without entropy =    -1115.33588721  energy(sigma->0) =    -1115.33588721
  exchange ACFDT corr.  =         0.00000000  see jH, gK, PRB 81, 115126


--------------------------------------------------------------------------------------------------------




----------------------------------------- Iteration    1(   8)  ---------------------------------------


    POTLOK:  cpu time    1.6120: real time    0.7653
    SETDIJ:  cpu time    0.8000: real time    0.8004
     EDDAV:  cpu time   86.8200: real time   21.7249
       DOS:  cpu time    0.0000: real time    0.0001
    CHARGE:  cpu time    3.9560: real time    0.9895
    MIXING:  cpu time    0.0560: real time    0.0144
    --------------------------------------------
      LOOP:  cpu time   93.2520: real time   24.2967

 eigenvalue-minimisations  :  1240
 total energy-change (2. order) :-0.2386147E+01  (-0.7874199E+00)
 number of electron     509.8703684 magnetization      18.1999999
 augmentation part        7.0376724 magnetization      16.3838579

 Free energy of the ion-electron system (eV)
  ---------------------------------------------------
  alpha Z        PSCENC =       342.58660385
  Ewald energy   TEWEN  =    -22017.52373621
  -Hartree energ DENC   =     -1705.15817822
  -exchange      EXHF   =         0.00000000
  -V(xc)+E(xc)   XCENC  =      1030.01905187
  PAW double counting   =     41980.05141415   -41305.53655824
  entropy T*S    EENTRO =         0.00000000
  eigenvalues    EBANDS =      1755.33373811
  atomic energy  EATOM  =     18802.50563071
  Solvation  Ediel_sol  =         0.00000000
  ---------------------------------------------------
  free energy    TOTEN  =     -1117.72203398 eV

  energy without entropy =    -1117.72203398  energy(sigma->0) =    -1117.72203398
  exchange ACFDT corr.  =         0.00000000  see jH, gK, PRB 81, 115126


--------------------------------------------------------------------------------------------------------




----------------------------------------- Iteration    1(   9)  ---------------------------------------


    POTLOK:  cpu time    1.3440: real time    0.7604
    SETDIJ:  cpu time    0.8040: real time    0.8013
     EDDAV:  cpu time   86.7960: real time   21.7197
       DOS:  cpu time    0.0000: real time    0.0001
    CHARGE:  cpu time    3.9560: real time    0.9896
    MIXING:  cpu time    0.0560: real time    0.0144
    --------------------------------------------
      LOOP:  cpu time   92.9640: real time   24.2880

 eigenvalue-minimisations  :  1240
 total energy-change (2. order) :-0.1019745E+01  (-0.3667740E+00)
 number of electron     509.9222066 magnetization      -7.7199991
 augmentation part        7.0273718 magnetization      -9.6183663

 Free energy of the ion-electron system (eV)
  ---------------------------------------------------
  alpha Z        PSCENC =       342.58660385
  Ewald energy   TEWEN  =    -22017.52373621
  -Hartree energ DENC   =     -1748.82407845
  -exchange      EXHF   =         0.00000000
  -V(xc)+E(xc)   XCENC  =      1034.47324321
  PAW double counting   =     45832.33997678   -45159.23188883
  entropy T*S    EENTRO =         0.00000000
  eigenvalues    EBANDS =      1794.93246971
  atomic energy  EATOM  =     18802.50563071
  Solvation  Ediel_sol  =         0.00000000
  ---------------------------------------------------
  free energy    TOTEN  =     -1118.74177923 eV

  energy without entropy =    -1118.74177923  energy(sigma->0) =    -1118.74177923
  exchange ACFDT corr.  =         0.00000000  see jH, gK, PRB 81, 115126


--------------------------------------------------------------------------------------------------------




----------------------------------------- Iteration    1(  10)  ---------------------------------------


    POTLOK:  cpu time    1.1040: real time    0.7584
    SETDIJ:  cpu time    0.8000: real time    0.8018
     EDDAV:  cpu time   88.7720: real time   22.2139
       DOS:  cpu time    0.0000: real time    0.0001
    CHARGE:  cpu time    3.9560: real time    0.9896
    MIXING:  cpu time    0.0600: real time    0.0144
    --------------------------------------------
      LOOP:  cpu time   94.7040: real time   24.7812

 eigenvalue-minimisations  :  1280
 total energy-change (2. order) :-0.6166113E+00  (-0.2759237E+00)
 number of electron     509.9533095 magnetization       7.8320000
 augmentation part        7.0242479 magnetization       5.9837076

 Free energy of the ion-electron system (eV)
  ---------------------------------------------------
  alpha Z        PSCENC =       342.58660385
  Ewald energy   TEWEN  =    -22017.52373621
  -Hartree energ DENC   =     -1773.17450685
  -exchange      EXHF   =         0.00000000
  -V(xc)+E(xc)   XCENC  =      1036.89431445
  PAW double counting   =     48222.12276600   -47549.84151619
  entropy T*S    EENTRO =         0.00000000
  eigenvalues    EBANDS =      1817.07205367
  atomic energy  EATOM  =     18802.50563071
  Solvation  Ediel_sol  =         0.00000000
  ---------------------------------------------------
  free energy    TOTEN  =     -1119.35839058 eV

  energy without entropy =    -1119.35839058  energy(sigma->0) =    -1119.35839058
  exchange ACFDT corr.  =         0.00000000  see jH, gK, PRB 81, 115126


--------------------------------------------------------------------------------------------------------




----------------------------------------- Iteration    1(  11)  ---------------------------------------


    POTLOK:  cpu time    1.1920: real time    0.7572
    SETDIJ:  cpu time    0.8000: real time    0.8015
     EDDAV:  cpu time   86.6640: real time   21.6863
       DOS:  cpu time    0.0000: real time    0.0001
    CHARGE:  cpu time    3.9560: real time    0.9895
    MIXING:  cpu time    0.0600: real time    0.0144
    --------------------------------------------
      LOOP:  cpu time   92.6760: real time   24.2512

 eigenvalue-minimisations  :  1240
 total energy-change (2. order) :-0.5838389E-01  (-0.2271177E+00)
 number of electron     509.9719713 magnetization      -1.4991993
 augmentation part        7.0313861 magnetization      -3.3796897

 Free energy of the ion-electron system (eV)
  ---------------------------------------------------
  alpha Z        PSCENC =       342.58660385
  Ewald energy   TEWEN  =    -22017.52373621
  -Hartree energ DENC   =     -1786.47251968
  -exchange      EXHF   =         0.00000000
  -V(xc)+E(xc)   XCENC  =      1038.54001840
  PAW double counting   =     49680.14955667   -49008.31427154
  entropy T*S    EENTRO =         0.00000000
  eigenvalues    EBANDS =      1829.11194332
  atomic energy  EATOM  =     18802.50563071
  Solvation  Ediel_sol  =         0.00000000
  ---------------------------------------------------
  free energy    TOTEN  =     -1119.41677447 eV

  energy without entropy =    -1119.41677447  energy(sigma->0) =    -1119.41677447
  exchange ACFDT corr.  =         0.00000000  see jH, gK, PRB 81, 115126


--------------------------------------------------------------------------------------------------------




----------------------------------------- Iteration    1(  12)  ---------------------------------------


    POTLOK:  cpu time    1.6720: real time    0.7661
    SETDIJ:  cpu time    0.8000: real time    0.8006
     EDDAV:  cpu time   93.6560: real time   23.4352
       DOS:  cpu time    0.0000: real time    0.0001
    CHARGE:  cpu time    3.9600: real time    0.9897
    MIXING:  cpu time    0.0560: real time    0.0144
    --------------------------------------------
      LOOP:  cpu time  100.1480: real time   26.0086

 eigenvalue-minimisations  :  1368
 total energy-change (2. order) :-0.2193349E+00  (-0.2120839E+00)
 number of electron     509.9831683 magnetization       4.0995202
 augmentation part        7.0272693 magnetization       2.2378170

 Free energy of the ion-electron system (eV)
  ---------------------------------------------------
  alpha Z        PSCENC =       342.58660385
  Ewald energy   TEWEN  =    -22017.52373621
  -Hartree energ DENC   =     -1794.26605967
  -exchange      EXHF   =         0.00000000
  -V(xc)+E(xc)   XCENC  =      1039.40878782
  PAW double counting   =     50561.87495886   -49890.31200541
  entropy T*S    EENTRO =         0.00000000
  eigenvalues    EBANDS =      1836.08971065
  atomic energy  EATOM  =     18802.50563071
  Solvation  Ediel_sol  =         0.00000000
  ---------------------------------------------------
  free energy    TOTEN  =     -1119.63610940 eV

  energy without entropy =    -1119.63610940  energy(sigma->0) =    -1119.63610940
  exchange ACFDT corr.  =         0.00000000  see jH, gK, PRB 81, 115126


--------------------------------------------------------------------------------------------------------




----------------------------------------- Iteration    1(  13)  ---------------------------------------


    POTLOK:  cpu time    1.6720: real time    0.7662
    SETDIJ:  cpu time    0.8040: real time    0.8018
     EDDAV:  cpu time   90.8800: real time   22.7418
       DOS:  cpu time    0.0000: real time    0.0001
    CHARGE:  cpu time    3.9600: real time    0.9895
    MIXING:  cpu time    0.0560: real time    0.0144
    --------------------------------------------
      LOOP:  cpu time   97.3800: real time   25.3165

 eigenvalue-minimisations  :  1312
 total energy-change (2. order) : 0.1003609E+00  (-0.1953142E+00)
 number of electron     509.9898866 magnetization       0.7402886
 augmentation part        7.0334041 magnetization      -1.1333831

 Free energy of the ion-electron system (eV)
  ---------------------------------------------------
  alpha Z        PSCENC =       342.58660385
  Ewald energy   TEWEN  =    -22017.52373621
  -Hartree energ DENC   =     -1798.51124956
  -exchange      EXHF   =         0.00000000
  -V(xc)+E(xc)   XCENC  =      1039.99344948
  PAW double counting   =     51090.97709380   -50419.55699300
  entropy T*S    EENTRO =         0.00000000
  eigenvalues    EBANDS =      1839.99345238
  atomic energy  EATOM  =     18802.50563071
  Solvation  Ediel_sol  =         0.00000000
  ---------------------------------------------------
  free energy    TOTEN  =     -1119.53574855 eV

  energy without entropy =    -1119.53574855  energy(sigma->0) =    -1119.53574855
  exchange ACFDT corr.  =         0.00000000  see jH, gK, PRB 81, 115126


--------------------------------------------------------------------------------------------------------




----------------------------------------- Iteration    1(  14)  ---------------------------------------


    POTLOK:  cpu time    1.3480: real time    0.7620
    SETDIJ:  cpu time    0.8000: real time    0.8010
     EDDAV:  cpu time   92.7840: real time   23.2170
       DOS:  cpu time    0.0000: real time    0.0001
    CHARGE:  cpu time    3.9560: real time    0.9896
    MIXING:  cpu time    0.0600: real time    0.0144
    --------------------------------------------
      LOOP:  cpu time   98.9560: real time   25.7863

 eigenvalue-minimisations  :  1352
 total energy-change (2. order) :-0.1477090E+00  (-0.2038365E+00)
 number of electron     509.9939175 magnetization       2.7558275
 augmentation part        7.0317017 magnetization       0.8881862

 Free energy of the ion-electron system (eV)
  ---------------------------------------------------
  alpha Z        PSCENC =       342.58660385
  Ewald energy   TEWEN  =    -22017.52373621
  -Hartree energ DENC   =     -1801.08958548
  -exchange      EXHF   =         0.00000000
  -V(xc)+E(xc)   XCENC  =      1040.30448388
  PAW double counting   =     51409.27070936   -50737.94047024
  entropy T*S    EENTRO =         0.00000000
  eigenvalues    EBANDS =      1842.20290659
  atomic energy  EATOM  =     18802.50563071
  Solvation  Ediel_sol  =         0.00000000
  ---------------------------------------------------
  free energy    TOTEN  =     -1119.68345754 eV

  energy without entropy =    -1119.68345754  energy(sigma->0) =    -1119.68345754
  exchange ACFDT corr.  =         0.00000000  see jH, gK, PRB 81, 115126


--------------------------------------------------------------------------------------------------------




----------------------------------------- Iteration    1(  15)  ---------------------------------------


    POTLOK:  cpu time    1.4200: real time    0.7623
    SETDIJ:  cpu time    0.8040: real time    0.8019
     EDDAV:  cpu time   90.0000: real time   22.5211
       DOS:  cpu time    0.0000: real time    0.0001
    CHARGE:  cpu time    3.9560: real time    0.9897
    MIXING:  cpu time    0.0560: real time    0.0144
    --------------------------------------------
      LOOP:  cpu time   96.2440: real time   25.0919

 eigenvalue-minimisations  :  1296
 total energy-change (2. order) : 0.1468256E+00  (-0.2148274E+00)
 number of electron     509.9963361 magnetization       1.5465042
 augmentation part        7.0356361 magnetization      -0.3262760

 Free energy of the ion-electron system (eV)
  ---------------------------------------------------
  alpha Z        PSCENC =       342.58660385
  Ewald energy   TEWEN  =    -22017.52373621
  -Hartree energ DENC   =     -1802.50491764
  -exchange      EXHF   =         0.00000000
  -V(xc)+E(xc)   XCENC  =      1040.53092901
  PAW double counting   =     51598.41758883   -50927.13139432
  entropy T*S    EENTRO =         0.00000000
  eigenvalues    EBANDS =      1843.58266388
  atomic energy  EATOM  =     18802.50563071
  Solvation  Ediel_sol  =         0.00000000
  ---------------------------------------------------
  free energy    TOTEN  =     -1119.53663189 eV

  energy without entropy =    -1119.53663189  energy(sigma->0) =    -1119.53663189
  exchange ACFDT corr.  =         0.00000000  see jH, gK, PRB 81, 115126


--------------------------------------------------------------------------------------------------------




----------------------------------------- Iteration    1(  16)  ---------------------------------------


    POTLOK:  cpu time    1.1640: real time    0.7596
    SETDIJ:  cpu time    0.8040: real time    0.8014
     EDDAV:  cpu time   94.5080: real time   23.6486
       DOS:  cpu time    0.0000: real time    0.0001
    CHARGE:  cpu time    3.9560: real time    0.9895
    MIXING:  cpu time    0.0560: real time    0.0144
    --------------------------------------------
      LOOP:  cpu time  100.4960: real time   26.2163

 eigenvalue-minimisations  :  1384
 total energy-change (2. order) :-0.1489429E+00  (-0.1983279E+00)
 number of electron     509.9977872 magnetization       2.2720982
 augmentation part        7.0341717 magnetization       0.4013191

 Free energy of the ion-electron system (eV)
  ---------------------------------------------------
  alpha Z        PSCENC =       342.58660385
  Ewald energy   TEWEN  =    -22017.52373621
  -Hartree energ DENC   =     -1803.43372610
  -exchange      EXHF   =         0.00000000
  -V(xc)+E(xc)   XCENC  =      1040.63592991
  PAW double counting   =     51712.45654663   -51041.20236540
  entropy T*S    EENTRO =         0.00000000
  eigenvalues    EBANDS =      1844.28954185
  atomic energy  EATOM  =     18802.50563071
  Solvation  Ediel_sol  =         0.00000000
  ---------------------------------------------------
  free energy    TOTEN  =     -1119.68557476 eV

  energy without entropy =    -1119.68557476  energy(sigma->0) =    -1119.68557476
  exchange ACFDT corr.  =         0.00000000  see jH, gK, PRB 81, 115126


--------------------------------------------------------------------------------------------------------




----------------------------------------- Iteration    1(  17)  ---------------------------------------


    POTLOK:  cpu time    1.1480: real time    0.7575
    SETDIJ:  cpu time    0.8000: real time    0.8012
     EDDAV:  cpu time   91.9000: real time   22.9963
       DOS:  cpu time    0.0000: real time    0.0001
    CHARGE:  cpu time    3.9560: real time    0.9895
    MIXING:  cpu time    0.0600: real time    0.0144
    --------------------------------------------
      LOOP:  cpu time   97.8720: real time   25.5613

 eigenvalue-minimisations  :  1336
 total energy-change (2. order) : 0.1331699E+00  (-0.1957187E+00)
 number of electron     509.9986579 magnetization       1.8367418
 augmentation part        7.0357881 magnetization      -0.0354641

 Free energy of the ion-electron system (eV)
  ---------------------------------------------------
  alpha Z        PSCENC =       342.58660385
  Ewald energy   TEWEN  =    -22017.52373621
  -Hartree energ DENC   =     -1803.93044515
  -exchange      EXHF   =         0.00000000
  -V(xc)+E(xc)   XCENC  =      1040.71350891
  PAW double counting   =     51779.41207271   -51108.17134866
  entropy T*S    EENTRO =         0.00000000
  eigenvalues    EBANDS =      1844.85530900
  atomic energy  EATOM  =     18802.50563071
  Solvation  Ediel_sol  =         0.00000000
  ---------------------------------------------------
  free energy    TOTEN  =     -1119.55240485 eV

  energy without entropy =    -1119.55240485  energy(sigma->0) =    -1119.55240485
  exchange ACFDT corr.  =         0.00000000  see jH, gK, PRB 81, 115126


--------------------------------------------------------------------------------------------------------




----------------------------------------- Iteration    1(  18)  ---------------------------------------


    POTLOK:  cpu time    1.2960: real time    0.7585
    SETDIJ:  cpu time    0.8000: real time    0.8008
     EDDAV:  cpu time   92.3320: real time   23.1042
       DOS:  cpu time    0.0000: real time    0.0001
    CHARGE:  cpu time    3.9560: real time    0.9895
    MIXING:  cpu time    0.0560: real time    0.0144
    --------------------------------------------
      LOOP:  cpu time   98.4440: real time   25.6698

 eigenvalue-minimisations  :  1344
 total energy-change (2. order) :-0.1395980E+00  (-0.2020666E+00)
 number of electron     509.9991803 magnetization       2.0979556
 augmentation part        7.0348380 magnetization       0.2258602

 Free energy of the ion-electron system (eV)
  ---------------------------------------------------
  alpha Z        PSCENC =       342.58660385
  Ewald energy   TEWEN  =    -22017.52373621
  -Hartree energ DENC   =     -1804.24121818
  -exchange      EXHF   =         0.00000000
  -V(xc)+E(xc)   XCENC  =      1040.74963074
  PAW double counting   =     51820.32377064   -51149.09376921
  entropy T*S    EENTRO =         0.00000000
  eigenvalues    EBANDS =      1845.00108476
  atomic energy  EATOM  =     18802.50563071
  Solvation  Ediel_sol  =         0.00000000
  ---------------------------------------------------
  free energy    TOTEN  =     -1119.69200289 eV

  energy without entropy =    -1119.69200289  energy(sigma->0) =    -1119.69200289
  exchange ACFDT corr.  =         0.00000000  see jH, gK, PRB 81, 115126


--------------------------------------------------------------------------------------------------------




----------------------------------------- Iteration    1(  19)  ---------------------------------------


    POTLOK:  cpu time    1.1120: real time    0.7575
    SETDIJ:  cpu time    0.8000: real time    0.8026
     EDDAV:  cpu time   89.9760: real time   22.5144
       DOS:  cpu time    0.0000: real time    0.0001
    CHARGE:  cpu time    3.9560: real time    0.9897
    MIXING:  cpu time    0.0600: real time    0.0144
    --------------------------------------------
      LOOP:  cpu time   95.9120: real time   25.0816

 eigenvalue-minimisations  :  1296
 total energy-change (2. order) : 0.1539519E+00  (-0.2154144E+00)
 number of electron     509.9994938 magnetization       1.9412273
 augmentation part        7.0366754 magnetization       0.0686348

 Free energy of the ion-electron system (eV)
  ---------------------------------------------------
  alpha Z        PSCENC =       342.58660385
  Ewald energy   TEWEN  =    -22017.52373621
  -Hartree energ DENC   =     -1804.41203634
  -exchange      EXHF   =         0.00000000
  -V(xc)+E(xc)   XCENC  =      1040.79424514
  PAW double counting   =     51843.73386125   -51172.50592298
  entropy T*S    EENTRO =         0.00000000
  eigenvalues    EBANDS =      1845.28330355
  atomic energy  EATOM  =     18802.50563071
  Solvation  Ediel_sol  =         0.00000000
  ---------------------------------------------------
  free energy    TOTEN  =     -1119.53805103 eV

  energy without entropy =    -1119.53805103  energy(sigma->0) =    -1119.53805103
  exchange ACFDT corr.  =         0.00000000  see jH, gK, PRB 81, 115126


--------------------------------------------------------------------------------------------------------




----------------------------------------- Iteration    1(  20)  ---------------------------------------


    POTLOK:  cpu time    1.5040: real time    0.7642
    SETDIJ:  cpu time    0.8000: real time    0.8016
     EDDAV:  cpu time   94.0880: real time   23.5435
       DOS:  cpu time    0.0000: real time    0.0001
    CHARGE:  cpu time    3.9560: real time    0.9897
    MIXING:  cpu time    0.0600: real time    0.0144
    --------------------------------------------
      LOOP:  cpu time  100.4120: real time   26.1155

 eigenvalue-minimisations  :  1376
 total energy-change (2. order) :-0.1490982E+00  (-0.1978318E+00)
 number of electron     509.9996818 magnetization       2.0352643
 augmentation part        7.0354294 magnetization       0.1627865

 Free energy of the ion-electron system (eV)
  ---------------------------------------------------
  alpha Z        PSCENC =       342.58660385
  Ewald energy   TEWEN  =    -22017.52373621
  -Hartree energ DENC   =     -1804.55082808
  -exchange      EXHF   =         0.00000000
  -V(xc)+E(xc)   XCENC  =      1040.79886764
  PAW double counting   =     51858.63957034   -51187.41725378
  entropy T*S    EENTRO =         0.00000000
  eigenvalues    EBANDS =      1845.27399631
  atomic energy  EATOM  =     18802.50563071
  Solvation  Ediel_sol  =         0.00000000
  ---------------------------------------------------
  free energy    TOTEN  =     -1119.68714922 eV

  energy without entropy =    -1119.68714922  energy(sigma->0) =    -1119.68714922
  exchange ACFDT corr.  =         0.00000000  see jH, gK, PRB 81, 115126


--------------------------------------------------------------------------------------------------------




----------------------------------------- Iteration    1(  21)  ---------------------------------------


    POTLOK:  cpu time    1.2080: real time    0.7883
    SETDIJ:  cpu time    0.8040: real time    0.8039
     EDDAV:  cpu time   91.2800: real time   22.8418
       DOS:  cpu time    0.0000: real time    0.0001
    CHARGE:  cpu time    3.9600: real time    0.9899
    MIXING:  cpu time    0.0560: real time    0.0144
    --------------------------------------------
      LOOP:  cpu time   97.3160: real time   25.4411

 eigenvalue-minimisations  :  1320
 total energy-change (2. order) : 0.1347343E+00  (-0.1967207E+00)
 number of electron     509.9997947 magnetization       1.9788421
 augmentation part        7.0361425 magnetization       0.1065891

 Free energy of the ion-electron system (eV)
  ---------------------------------------------------
  alpha Z        PSCENC =       342.58660385
  Ewald energy   TEWEN  =    -22017.52373621
  -Hartree energ DENC   =     -1804.60854370
  -exchange      EXHF   =         0.00000000
  -V(xc)+E(xc)   XCENC  =      1040.80952078
  PAW double counting   =     51866.57087081   -51195.34845252
  entropy T*S    EENTRO =         0.00000000
  eigenvalues    EBANDS =      1845.45569139
  atomic energy  EATOM  =     18802.50563071
  Solvation  Ediel_sol  =         0.00000000
  ---------------------------------------------------
  free energy    TOTEN  =     -1119.55241490 eV

  energy without entropy =    -1119.55241490  energy(sigma->0) =    -1119.55241490
  exchange ACFDT corr.  =         0.00000000  see jH, gK, PRB 81, 115126


--------------------------------------------------------------------------------------------------------




----------------------------------------- Iteration    1(  22)  ---------------------------------------


    POTLOK:  cpu time    1.6920: real time    0.7672
    SETDIJ:  cpu time    0.8000: real time    0.8015
     EDDAV:  cpu time   93.3680: real time   23.3630
       DOS:  cpu time    0.0000: real time    0.0001
    CHARGE:  cpu time    3.9560: real time    0.9896
    MIXING:  cpu time    0.0560: real time    0.0144
    --------------------------------------------
      LOOP:  cpu time   99.8800: real time   25.9385

 eigenvalue-minimisations  :  1360
 total energy-change (2. order) :-0.1401810E+00  (-0.2023445E+00)
 number of electron     509.9998624 magnetization       2.0126954
 augmentation part        7.0352727 magnetization       0.1398439

 Free energy of the ion-electron system (eV)
[...]
   -.140E+01 0.618E+01 0.664E+01   0.335E+01 -.648E+01 -.648E+01   -.227E+01 0.119E+01 0.119E+01   -.133E+00 -.886E+00 -.120E+01
   -.626E+01 0.153E+01 0.178E+01   0.591E+01 -.191E+01 -.191E+01   0.759E+00 0.744E+00 0.744E+00   -.290E+00 -.304E+00 -.601E+00
   -.285E+01 0.967E-01 0.137E+01   0.324E+01 -.174E+00 -.111E+01   -.229E+00 0.691E-01 0.151E+00   -.241E+00 0.323E-02 -.456E+00
   -.400E+00 -.469E+01 -.324E+01   0.467E+00 0.494E+01 0.359E+01   -.356E-01 0.102E-01 0.321E+00   0.883E-01 -.378E+00 -.822E+00
   -.405E+01 0.343E+01 0.386E+01   0.511E+01 -.342E+01 -.342E+01   -.135E+01 -.461E-01 -.461E-01   -.563E-01 -.879E-01 -.465E+00
   -.312E+02 -.123E+02 -.106E+02   0.359E+02 0.759E+01 0.759E+01   -.381E+01 0.427E+01 0.427E+01   -.390E+00 0.695E+00 -.137E+01
   -.310E+01 -.158E+02 -.565E+00   0.435E+01 0.177E+02 0.430E+01   -.118E+01 -.947E+00 -.169E+01   -.306E+00 -.116E+01 -.234E+01
   0.145E+02 -.154E+02 0.162E+02   -.182E+02 0.198E+02 -.859E+01   0.172E+01 -.303E+01 -.267E+01   0.261E+01 -.179E+01 -.474E+01
   -.277E+01 0.107E+01 0.355E+00   0.324E+01 -.111E+01 -.174E+00   -.229E+00 0.151E+00 0.691E-01   -.217E+00 -.149E+00 -.249E+00
   -.553E+00 -.428E+01 -.478E+01   0.467E+00 0.359E+01 0.494E+01   -.356E-01 0.321E+00 0.102E-01   0.170E-01 0.423E+00 -.142E+00
   0.309E+00 -.181E+01 -.121E+01   -.202E+00 0.193E+01 0.193E+01   -.195E+00 -.251E+00 -.251E+00   0.912E-01 0.168E+00 -.491E+00
   0.414E+01 -.150E+01 -.294E+00   -.468E+01 0.163E+01 0.163E+01   0.342E+00 -.580E+00 -.580E+00   0.272E+00 0.375E+00 -.796E+00
   -.305E+01 -.381E+01 -.169E+02   0.435E+01 0.430E+01 0.177E+02   -.118E+01 -.169E+01 -.947E+00   0.843E-01 0.138E+01 0.493E-01
   0.174E+02 0.847E+01 -.166E+02   -.182E+02 -.859E+01 0.198E+02   0.172E+01 -.267E+01 -.303E+01   -.124E+01 0.316E+01 -.279E-02
   0.159E+02 -.491E+01 -.177E+01   -.180E+02 0.382E+01 0.382E+01   0.160E+01 -.175E-01 -.175E-01   0.657E+00 0.162E+01 -.247E+01
   0.977E+01 -.675E+00 0.193E+01   -.114E+02 -.529E+00 -.529E+00   0.100E+01 -.669E-01 -.669E-01   0.629E+00 0.129E+01 -.132E+01
   0.294E+01 -.104E+01 0.294E+01   -.648E+01 0.335E+01 -.648E+01   0.119E+01 -.227E+01 0.119E+01   0.206E+01 0.252E+00 0.206E+01
   0.499E+00 -.695E+01 0.501E+00   -.191E+01 0.591E+01 -.191E+01   0.744E+00 0.759E+00 0.744E+00   0.912E+00 0.581E+00 0.911E+00
   0.291E+01 -.420E+01 0.291E+01   -.342E+01 0.511E+01 -.342E+01   -.461E-01 -.135E+01 -.461E-01   0.570E+00 0.112E+00 0.567E+00
   -.125E+02 -.322E+02 -.125E+02   0.759E+01 0.359E+02 0.759E+01   0.427E+01 -.381E+01 0.427E+01   0.751E+00 0.815E+00 0.738E+00
   -.200E+00 -.345E+01 0.398E+00   -.174E+00 0.324E+01 -.111E+01   0.691E-01 -.229E+00 0.151E+00   0.250E+00 0.463E+00 0.609E+00
   -.532E+01 -.405E+00 -.428E+01   0.494E+01 0.467E+00 0.359E+01   0.102E-01 -.356E-01 0.321E+00   0.535E+00 -.108E+00 0.404E+00
   -.180E+02 -.337E+01 -.355E+01   0.177E+02 0.435E+01 0.430E+01   -.947E+00 -.118E+01 -.169E+01   0.120E+01 0.206E+00 0.997E+00
   -.184E+02 0.179E+02 0.102E+02   0.198E+02 -.182E+02 -.859E+01   -.303E+01 0.172E+01 -.267E+01   0.197E+01 -.153E+01 0.167E+01
   0.396E+00 -.344E+01 -.199E+00   -.111E+01 0.324E+01 -.174E+00   0.151E+00 -.229E+00 0.691E-01   0.611E+00 0.463E+00 0.249E+00
   -.429E+01 -.406E+00 -.532E+01   0.359E+01 0.467E+00 0.494E+01   0.321E+00 -.356E-01 0.102E-01   0.411E+00 -.109E+00 0.537E+00
   -.357E+01 -.337E+01 -.180E+02   0.430E+01 0.435E+01 0.177E+02   -.169E+01 -.118E+01 -.947E+00   0.102E+01 0.208E+00 0.120E+01
   0.102E+02 0.179E+02 -.184E+02   -.859E+01 -.182E+02 0.198E+02   -.267E+01 0.172E+01 -.303E+01   0.172E+01 -.155E+01 0.199E+01
   -.197E+01 0.618E+00 -.196E+01   0.193E+01 -.202E+00 0.193E+01   -.251E+00 -.195E+00 -.251E+00   0.333E+00 -.189E+00 0.330E+00
   -.132E+01 0.472E+01 -.131E+01   0.163E+01 -.468E+01 0.163E+01   -.580E+00 0.342E+00 -.580E+00   0.434E+00 -.557E+00 0.427E+00
   -.478E+01 0.175E+02 -.476E+01   0.382E+01 -.180E+02 0.382E+01   -.175E-01 0.160E+01 -.175E-01   0.922E+00 -.143E+01 0.897E+00
   0.550E+00 0.116E+02 0.566E+00   -.529E+00 -.114E+02 -.529E+00   -.669E-01 0.100E+01 -.669E-01   0.365E-01 -.135E+01 0.202E-01
   0.457E+02 -.486E+02 0.457E+02   -.563E+02 0.585E+02 -.563E+02   0.705E+01 -.842E+01 0.705E+01   -.350E+00 0.157E+01 -.364E+00
   0.168E+02 -.176E+02 0.169E+02   -.208E+02 0.108E+02 -.208E+02   0.216E+01 0.236E+01 0.216E+01   0.189E+01 0.508E+01 0.188E+01
   -.528E+02 0.506E+02 0.525E+02   0.585E+02 -.563E+02 -.563E+02   -.842E+01 0.705E+01 0.705E+01   -.669E+00 0.114E+01 -.969E+00
   -.105E+02 0.186E+02 0.198E+02   0.108E+02 -.208E+02 -.208E+02   0.236E+01 0.216E+01 0.216E+01   -.256E+01 -.186E+00 -.186E+01
   0.572E+01 0.234E+01 0.187E+02   -.473E+01 -.473E+01 -.206E+02   0.134E+00 0.134E+00 0.187E+01   -.147E+01 0.248E+01 0.292E+00
   0.100E+01 -.608E-01 0.386E+01   -.126E+01 -.126E+01 -.471E+01   0.657E+00 0.657E+00 0.840E+00   -.321E+00 0.723E+00 0.544E-01
   0.525E+02 0.506E+02 -.529E+02   -.563E+02 -.563E+02 0.585E+02   0.705E+01 0.705E+01 -.842E+01   -.960E+00 0.114E+01 -.682E+00
   0.199E+02 0.186E+02 -.105E+02   -.208E+02 -.208E+02 0.108E+02   0.216E+01 0.216E+01 0.236E+01   -.187E+01 -.211E+00 -.261E+01
   0.187E+02 0.235E+01 0.574E+01   -.206E+02 -.473E+01 -.473E+01   0.187E+01 0.134E+00 0.134E+00   0.285E+00 0.249E+01 -.149E+01
   0.386E+01 -.616E-01 0.100E+01   -.471E+01 -.126E+01 -.126E+01   0.840E+00 0.657E+00 0.657E+00   0.532E-01 0.722E+00 -.327E+00
   0.571E+01 0.191E+02 0.574E+01   -.473E+01 -.206E+02 -.473E+01   0.134E+00 0.187E+01 0.134E+00   -.105E+01 -.693E+00 -.107E+01
   0.825E+00 0.393E+01 0.830E+00   -.126E+01 -.471E+01 -.126E+01   0.657E+00 0.840E+00 0.657E+00   -.399E+00 -.119E+00 -.405E+00
   0.194E+01 0.148E+01 0.194E+01   -.185E+01 -.185E+01 -.185E+01   0.640E-01 0.640E-01 0.640E-01   -.184E+00 0.367E+00 -.187E+00
   -.999E+00 -.119E+01 -.998E+00   0.900E+00 0.900E+00 0.900E+00   0.152E+00 0.152E+00 0.152E+00   -.501E-01 0.102E+00 -.508E-01
   -.634E+02 -.667E+02 -.634E+02   0.798E+02 0.798E+02 0.798E+02   -.151E+02 -.151E+02 -.151E+02   -.112E+01 0.240E+01 -.114E+01
 -----------------------------------------------------------------------------------------------
   -.626E+01 0.196E+02 -.644E+01   -.128E-12 -.270E-12 0.119E-11   -.220E+01 -.220E+01 -.220E+01   0.469E+01 -.966E+01 0.478E+01
 
 
 POSITION                                       TOTAL-FORCE (eV/Angst)
 -----------------------------------------------------------------------------------
     14.26793     14.26793     14.26793         0.012490      0.012490      0.012490
      0.89183      0.89183      0.89183        -0.002652     -0.002652     -0.002652
      1.78399      0.00006      1.78399        -0.001433      0.016356     -0.001433
      2.67587      0.89234      2.67587         0.006251      0.002331      0.006251
      0.00006      1.78399      1.78399         0.016356     -0.001433     -0.001433
      0.89234      2.67587      2.67587         0.002331      0.006251      0.006251
      8.91809      8.91809      3.56832        -0.019959     -0.019959      0.000482
      2.67536      2.67536      4.45971         0.032931      0.032931      0.070784
      1.78399      1.78399      0.00006        -0.001433     -0.001433      0.016356
      2.67587      2.67587      0.89234         0.006251      0.006251      0.002331
      3.56832      8.91809      8.91809         0.000482     -0.019959     -0.019959
      4.45971      2.67536      2.67536         0.070784      0.032931      0.032931
      8.91809      3.56832      8.91809        -0.019959      0.000482     -0.019959
      2.67536      4.45971      2.67536         0.032931      0.070784      0.032931
      3.56638      3.56638      3.56638        -0.074607     -0.074607     -0.074607
      4.45779      4.45779      4.45779         0.029188      0.029188      0.029188
      3.56796      0.00239      3.56796         0.005836      0.026177      0.005836
      4.45923      0.89315      4.45923         0.015223      0.073696      0.015223
      5.35009      0.00010      5.35009        -0.020734      0.009299     -0.020734
      6.24216      0.89207      6.24216         0.005671      0.011602      0.005671
      3.57076      1.78087      5.34670        -0.036516     -0.183263     -0.086441
      4.45836      2.67493      6.24295         0.000991     -0.008844      0.045538
     12.48436      8.91718      7.13463         0.014134     -0.003069     -0.001215
      6.24239      2.67551      8.02581        -0.011714     -0.010589     -0.005861
      5.34670      1.78087      3.57076        -0.086441     -0.183263     -0.036516
      6.24295      2.67493      4.45836         0.045538     -0.008844      0.000991
      7.13463      8.91718     12.48436        -0.001215     -0.003069      0.014134
      8.02581      2.67551      6.24239        -0.005861     -0.010589     -0.011714
      5.34990      3.56367      5.34990        -0.071385     -0.066408     -0.071385
      6.23889      4.45298      6.23889         0.041553     -0.009724      0.041553
      7.13376      3.56635      7.13376        -0.000432     -0.018606     -0.000432
      8.02569      4.46306      8.02569         0.011421      0.019710      0.011421
      0.00239      3.56796      3.56796         0.026177      0.005836      0.005836
      0.89315      4.45923      4.45923         0.073696      0.015223      0.015223
      1.78087      3.57076      5.34670        -0.183263     -0.036516     -0.086441
      2.67493      4.45836      6.24295        -0.008844      0.000991      0.045538
      0.00010      5.35009      5.35009         0.009299     -0.020734     -0.020734
      0.89207      6.24216      6.24216         0.011602      0.005671      0.005671
      8.91718     12.48436      7.13463        -0.003069      0.014134     -0.001215
      2.67551      6.24239      8.02581        -0.010589     -0.011714     -0.005861
      1.78087      5.34670      3.57076        -0.183263     -0.086441     -0.036516
      2.67493      6.24295      4.45836        -0.008844      0.045538      0.000991
      3.56367      5.34990      5.34990        -0.066408     -0.071385     -0.071385
      4.45298      6.23889      6.23889        -0.009724      0.041553      0.041553
      8.91718      7.13463     12.48436        -0.003069     -0.001215      0.014134
      2.67551      8.02581      6.24239        -0.010589     -0.005861     -0.011714
      3.56635      7.13376      7.13376        -0.018606     -0.000432     -0.000432
      4.46306      8.02569      8.02569         0.019710      0.011421      0.011421
      3.57485      3.57485      7.13886        -0.053559     -0.053559     -0.207555
      4.45906      4.45906      8.02481         0.099568      0.099568      0.179245
      5.35196      3.56917      8.91738        -0.009478     -0.019359     -0.005401
      6.24482      4.46662      9.80302        -0.020901      0.025765     -0.022666
      3.56917      5.35196      8.91738        -0.019359     -0.009478     -0.005401
      4.46662      6.24482      9.80302         0.025765     -0.020901     -0.022666
      5.35300      5.35300     10.69916         0.022254      0.022254      0.012816
      6.24574      6.24574     11.58952         0.019955      0.019955     -0.006870
      5.34047      5.34047      7.13198        -0.060161     -0.060161     -0.336467
      6.24432      6.24432      7.98240         0.094036      0.094036      0.563636
      7.14315      5.36651      8.90227        -0.012834     -0.080934     -0.004737
      8.03733      6.26108      9.79551         0.391887      0.063475      0.030282
      5.36651      7.14315      8.90227        -0.080934     -0.012834     -0.004737
      6.26108      8.03733      9.79551         0.063475      0.391887      0.030282
      7.13883      7.13883     10.69394         0.007775      0.007775     -0.007165
      8.02717      8.02717     11.58943         0.006239      0.006239     -0.050866
      3.56796      3.56796      0.00239         0.005836      0.005836      0.026177
      4.45923      4.45923      0.89315         0.015223      0.015223      0.073696
      5.34670      3.57076      1.78087        -0.086441     -0.036516     -0.183263
      6.24295      4.45836      2.67493         0.045538      0.000991     -0.008844
      3.57076      5.34670      1.78087        -0.036516     -0.086441     -0.183263
      4.45836      6.24295      2.67493         0.000991      0.045538     -0.008844
      5.34990      5.34990      3.56367        -0.071385     -0.071385     -0.066408
      6.23889      6.23889      4.45298         0.041553      0.041553     -0.009724
      5.35009      5.35009      0.00010        -0.020734     -0.020734      0.009299
      6.24216      6.24216      0.89207         0.005671      0.005671      0.011602
      7.13463     12.48436      8.91718        -0.001215      0.014134     -0.003069
      8.02581      6.24239      2.67551        -0.005861     -0.011714     -0.010589
     12.48436      7.13463      8.91718         0.014134     -0.001215     -0.003069
      6.24239      8.02581      2.67551        -0.011714     -0.005861     -0.010589
      7.13376      7.13376      3.56635        -0.000432     -0.000432     -0.018606
      8.02569      8.02569      4.46306         0.011421      0.011421      0.019710
      7.13886      3.57485      3.57485        -0.207555     -0.053559     -0.053559
      8.02481      4.45906      4.45906         0.179245      0.099568      0.099568
      8.91738      3.56917      5.35196        -0.005401     -0.019359     -0.009478
      9.80302      4.46662      6.24482        -0.022666      0.025765     -0.020901
      7.13198      5.34047      5.34047        -0.336467     -0.060161     -0.060161
      7.98240      6.24432      6.24432         0.563636      0.094036      0.094036
      8.90227      5.36651      7.14315        -0.004737     -0.080934     -0.012834
      9.79551      6.26108      8.03733         0.030282      0.063475      0.391887
      8.91738      5.35196      3.56917        -0.005401     -0.009478     -0.019359
      9.80302      6.24482      4.46662        -0.022666     -0.020901      0.025765
     10.69916      5.35300      5.35300         0.012816      0.022254      0.022254
     11.58952      6.24574      6.24574        -0.006870      0.019955      0.019955
      8.90227      7.14315      5.36651        -0.004737     -0.012834     -0.080934
      9.79551      8.03733      6.26108         0.030282      0.391887      0.063475
     10.69394      7.13883      7.13883        -0.007165      0.007775      0.007775
     11.58943      8.02717      8.02717        -0.050866      0.006239      0.006239
      3.57485      7.13886      3.57485        -0.053559     -0.207555     -0.053559
      4.45906      8.02481      4.45906         0.099568      0.179245      0.099568
      5.34047      7.13198      5.34047        -0.060161     -0.336467     -0.060161
      6.24432      7.98240      6.24432         0.094036      0.563636      0.094036
      3.56917      8.91738      5.35196        -0.019359     -0.005401     -0.009478
      4.46662      9.80302      6.24482         0.025765     -0.022666     -0.020901
      5.36651      8.90227      7.14315        -0.080934     -0.004737     -0.012834
      6.26108      9.79551      8.03733         0.063475      0.030282      0.391887
      5.35196      8.91738      3.56917        -0.009478     -0.005401     -0.019359
      6.24482      9.80302      4.46662        -0.020901     -0.022666      0.025765
      7.14315      8.90227      5.36651        -0.012834     -0.004737     -0.080934
      8.03733      9.79551      6.26108         0.391887      0.030282      0.063475
      5.35300     10.69916      5.35300         0.022254      0.012816      0.022254
      6.24574     11.58952      6.24574         0.019955     -0.006870      0.019955
      7.13883     10.69394      7.13883         0.007775     -0.007165      0.007775
      8.02717     11.58943      8.02717         0.006239     -0.050866      0.006239
      8.98874      7.08493      8.98874         0.264374     -1.283588      0.264374
      9.80724      8.01906      9.80724        -0.229419      0.282429     -0.229419
      7.08493      8.98874      8.98874        -1.283588      0.264374      0.264374
      8.01906      9.80724      9.80724         0.282429     -0.229419     -0.229419
      8.91738      8.91738     10.69878        -0.010727     -0.010727      0.070396
      9.80889      9.80889     11.59310        -0.011979     -0.011979      0.011409
      8.98874      8.98874      7.08493         0.264374      0.264374     -1.283588
      9.80724      9.80724      8.01906        -0.229419     -0.229419      0.282429
     10.69878      8.91738      8.91738         0.070396     -0.010727     -0.010727
     11.59310      9.80889      9.80889         0.011409     -0.011979     -0.011979
      8.91738     10.69878      8.91738        -0.010727      0.070396     -0.010727
      9.80889     11.59310      9.80889        -0.011979      0.011409     -0.011979
     10.70193     10.70193     10.70193        -0.005492     -0.005492     -0.005492
     11.59335     11.59335     11.59335        -0.010476     -0.010476     -0.010476
      7.04536      7.04536      7.04536         0.285337      0.285337      0.285337
 -----------------------------------------------------------------------------------
    total drift:                               -3.769496      7.775683     -3.854545


--------------------------------------------------------------------------------------------------------



  FREE ENERGIE OF THE ION-ELECTRON SYSTEM (eV)
  ---------------------------------------------------
  free  energy   TOTEN  =     -1119.68768304 eV

  energy  without entropy=    -1119.68768304  energy(sigma->0) =    -1119.68768304
 


--------------------------------------------------------------------------------------------------------


    POTLOK:  cpu time    1.5560: real time    1.5544

 Spin-spin contribution to zero-field splitting tensor (MHz)
 ---------------------------------------------------------------
      D_xx      D_yy      D_zz      D_xy      D_xz      D_yz
 ---------------------------------------------------------------
     -0.002    -0.002    -0.002   595.158   595.158   595.158
 ---------------------------------------------------------------

 after diagonalization
 ---------------------------------------------
     D_diag          eigenvector (x,y,z)
 ---------------------------------------------
   -595.160       0.632    -0.763     0.131
   -595.160      -0.516    -0.290     0.806
   1190.314      -0.577    -0.577    -0.577
---------------------------------------------



--------------------------------------------------------------------------------------------------------


 writing wavefunctions
     LOOP+:  cpu time 9219.3720: real time 2442.0094
    4ORBIT:  cpu time    0.0000: real time    0.0000

 total amount of memory used by VASP on root node   256596. kBytes
========================================================================

   base      :      30000. kBytes
   nonl-proj :      15882. kBytes
   fftplans  :      34720. kBytes
   grid      :      91360. kBytes
   one-center:       2950. kBytes
   HF        :        193. kBytes
   nonlr-proj:      10976. kBytes
   wavefun   :      70515. kBytes
 
  
  
 General timing and accounting informations for this job:
 ========================================================
  
                  Total CPU time used (sec):     9242.828
                            User time (sec):     9118.020
                          System time (sec):      124.808
                         Elapsed time (sec):     2451.364
  
                   Maximum memory used (kb):      477708.
                   Average memory used (kb):           0.
  
                          Minor page faults:       350509
                          Major page faults:            0
                 Voluntary context switches:        16177
