 vasp.5.3.6 23Jan15 (build Feb 02 2016 19:35:31) gamma-only                     
  
 executed on           IFC91_ompi date 2016.07.11  17:20:17
 running on   64 total cores
 distrk:  each k-point on   64 cores,    1 groups
 distr:  one band on NCORES_PER_BAND=   1 cores,   64 groups


--------------------------------------------------------------------------------------------------------


 INCAR:
 POTCAR:    PAW_PBE C_GW_new 19Mar2012            
 POTCAR:   PAW_PBE N_GW_new 19Mar2012             

 ----------------------------------------------------------------------------- 
|                                                                             |
|           W    W    AA    RRRRR   N    N  II  N    N   GGGG   !!!           |
|           W    W   A  A   R    R  NN   N  II  NN   N  G    G  !!!           |
|           W    W  A    A  R    R  N N  N  II  N N  N  G       !!!           |
|           W WW W  AAAAAA  RRRRR   N  N N  II  N  N N  G  GGG   !            |
|           WW  WW  A    A  R   R   N   NN  II  N   NN  G    G                |
|           W    W  A    A  R    R  N    N  II  N    N   GGGG   !!!           |
|                                                                             |
|      For optimal performance we recommend to set                            |
|        NCORE= 4 - approx SQRT( number of cores)                             |
|      NCORE specifies how many cores store one orbital (NPAR=cpu/NCORE).     |
|      This setting can  greatly improve the performance of VASP for DFT.     |
|      The default, NPAR=number of cores might be grossly inefficient         |
|      on modern multi-core architectures or massively parallel machines.     |
|      Do your own testing !!!!                                               |
|      Unfortunately you need to use the default for GW and RPA calculations. |
|      (for HF NCORE is supported but not extensively tested yet)             |
|                                                                             |
 ----------------------------------------------------------------------------- 

 POTCAR:    PAW_PBE C_GW_new 19Mar2012            
   VRHFIN =C: s2p2                                                              
   LEXCH  = PE                                                                  
   EATOM  =   147.1560 eV,   10.8157 Ry                                         
                                                                                
   TITEL  = PAW_PBE C_GW_new 19Mar2012                                          
   LULTRA =        F    use ultrasoft PP ?                                      
   IUNSCR =        1    unscreen: 0-lin 1-nonlin 2-no                           
   RPACOR =    0.800    partial core radius                                     
   POMASS =   12.011; ZVAL   =    4.000    mass and valenz                      
   RCORE  =    1.600    outmost cutoff radius                                   
   RWIGS  =    1.600; RWIGS  =    0.847    wigner-seitz radius (au A)           
   ENMAX  =  413.992; ENMIN  =  310.494 eV                                      
   ICORE  =        3    local potential                                         
   LCOR   =        T    correct aug charges                                     
   LPAW   =        T    paw PP                                                  
   EAUG   = 1213.930                                                            
   DEXC   =    0.000                                                            
   RMAX   =    1.630    core radius for proj-oper                               
   RAUG   =    1.300    factor for augmentation sphere                          
   RDEP   =    1.601    radius for radial grids                                 
   RDEPT  =    1.200    core radius for aug-charge                              
                                                                                
   Atomic configuration                                                         
    5 entries                                                                   
     n  l   j            E        occ.                                          
     1  0  0.50      -273.3789   2.0000                                         
     2  0  0.50       -13.7508   2.0000                                         
     2  1  0.50        -5.2854   2.0000                                         
     3  2  1.50        -5.4423   0.0000                                         
     4  3  2.50        -5.4423   0.0000                                         
   Description                                                                  
     l       E           TYP  RCUT    TYP  RCUT                                 
     0    -13.7508457     23  1.200                                             
     0     -7.5219285     23  1.200                                             
     0    272.1165200     23  1.300                                             
     1     -5.2854382     23  1.500                                             
     1    108.8466080     23  1.500                                             
     2     27.2116520     23  1.500                                             
     2    190.4815640     23  1.600                                             
     3     54.4233040     23  1.400                                             
  local pseudopotential read in
  partial core-charges read in
  partial kinetic energy density read in
  kinetic energy density of atom read in
  atomic valenz-charges read in
  non local Contribution for L=           0  read in
    real space projection operators read in
  non local Contribution for L=           0  read in
    real space projection operators read in
  non local Contribution for L=           0  read in
    real space projection operators read in
  non local Contribution for L=           1  read in
    real space projection operators read in
  non local Contribution for L=           1  read in
    real space projection operators read in
  non local Contribution for L=           2  read in
    real space projection operators read in
  non local Contribution for L=           2  read in
    real space projection operators read in
    PAW grid and wavefunctions read in
 
   number of l-projection  operators is LMAX  =           7
   number of lm-projection operators is LMMAX =          19
 
 POTCAR:   PAW_PBE N_GW_new 19Mar2012             
   VRHFIN =N: s2p3                                                              
   LEXCH  = PE                                                                  
   EATOM  =   264.5486 eV,   19.4438 Ry                                         
                                                                                
   TITEL  = PAW_PBE N_GW_new 19Mar2012                                          
   LULTRA =        F    use ultrasoft PP ?                                      
   IUNSCR =        1    unscreen: 0-lin 1-nonlin 2-no                           
   RPACOR =    0.800    partial core radius                                     
   POMASS =   14.001; ZVAL   =    5.000    mass and valenz                      
   RCORE  =    1.600    outmost cutoff radius                                   
   RWIGS  =    1.600; RWIGS  =    0.847    wigner-seitz radius (au A)           
   ENMAX  =  420.902; ENMIN  =  315.677 eV                                      
   ICORE  =        3    local potential                                         
   LCOR   =        T    correct aug charges                                     
   LPAW   =        T    paw PP                                                  
   EAUG   = 1173.595                                                            
   DEXC   =    0.000                                                            
   RMAX   =    1.638    core radius for proj-oper                               
   RAUG   =    1.300    factor for augmentation sphere                          
   RDEP   =    1.609    radius for radial grids                                 
   RDEPT  =    1.200    core radius for aug-charge                              
                                                                                
   Atomic configuration                                                         
    5 entries                                                                   
     n  l   j            E        occ.                                          
     1  0  0.50      -384.7179   2.0000                                         
     2  0  0.50       -18.5828   2.0000                                         
     2  1  0.50        -7.0898   3.0000                                         
     3  2  1.50        -8.1635   0.0000                                         
     4  3  2.50        -8.1635   0.0000                                         
   Description                                                                  
     l       E           TYP  RCUT    TYP  RCUT                                 
     0    -18.5828120     23  1.150                                             
     0    -16.4356426     23  1.150                                             
     0    258.5106940     23  1.300                                             
     1     -7.0897854     23  1.500                                             
     1     -3.1993695     23  1.500                                             
     1    136.0582600     23  1.500                                             
     2     27.2116520     23  1.500                                             
     2    190.4815640     23  1.600                                             
     3     54.4233040     23  1.400                                             
  local pseudopotential read in
  partial core-charges read in
  partial kinetic energy density read in
  kinetic energy density of atom read in
  atomic valenz-charges read in
  non local Contribution for L=           0  read in
    real space projection operators read in
  non local Contribution for L=           0  read in
    real space projection operators read in
  non local Contribution for L=           0  read in
    real space projection operators read in
  non local Contribution for L=           1  read in
    real space projection operators read in
  non local Contribution for L=           1  read in
    real space projection operators read in
  non local Contribution for L=           1  read in
    real space projection operators read in
  non local Contribution for L=           2  read in
    real space projection operators read in
  non local Contribution for L=           2  read in
    real space projection operators read in
    PAW grid and wavefunctions read in
 
   number of l-projection  operators is LMAX  =           8
   number of lm-projection operators is LMMAX =          22
 
  PAW_PBE C_GW_new 19Mar2012            :
 energy of atom  1       EATOM= -147.1560
 kinetic energy error for atom=    0.0010 (will be added to EATOM!!)
 PAW_PBE N_GW_new 19Mar2012             :
 energy of atom  2       EATOM= -264.5486
 kinetic energy error for atom=    0.0018 (will be added to EATOM!!)
 
 
 POSCAR: C                                       
  positions in direct lattice
  velocities in cartesian coordinates
 exchange correlation table for  LEXCH =        8
   RHO(1)=    0.500       N(1)  =     2000
   RHO(2)=  100.500       N(2)  =     4000
 


--------------------------------------------------------------------------------------------------------


 ion  position               nearest neighbor table
   1  1.000  1.000  1.000-   2 1.52   4 1.56   6 1.56  10 1.56
   2  0.123  0.123  0.123-   1 1.52   3 1.53   5 1.53   9 1.53
   3  0.999  0.999  0.495-   2 1.53   4 1.57   8 1.58  12 1.58
   4  0.128  0.128  0.620-   7 1.48  11 1.48   1 1.56   3 1.57
   5  0.999  0.495  0.999-   2 1.53   6 1.57   8 1.58  14 1.58
   6  0.128  0.620  0.128-   7 1.48  13 1.48   1 1.56   5 1.57
   7  0.045  0.485  0.485-   8 1.46   6 1.48   4 1.48
   8  0.136  0.616  0.616-   7 1.46  15 1.50   3 1.58   5 1.58
   9  0.495  0.999  0.999-   2 1.53  10 1.57  12 1.58  14 1.58
  10  0.620  0.128  0.128-  11 1.48  13 1.48   1 1.56   9 1.57
  11  0.485  0.045  0.485-  12 1.46  10 1.48   4 1.48
  12  0.616  0.136  0.616-  11 1.46  15 1.50   3 1.58   9 1.58
  13  0.485  0.485  0.045-  14 1.46  10 1.48   6 1.48
  14  0.616  0.616  0.136-  13 1.46  15 1.50   5 1.58   9 1.58
  15  0.500  0.500  0.500-   8 1.50  12 1.50  14 1.50
 
  LATTYP: Found a face centered cubic cell.
 ALAT       =     7.1342018063
  
  Lattice vectors:
  
 A1 = (   3.5671009032,   3.5671009032,   0.0000000000)
 A2 = (   0.0000000000,   3.5671009032,   3.5671009032)
 A3 = (   3.5671009032,   0.0000000000,   3.5671009032)


Analysis of symmetry for initial positions (statically):
=====================================================================
 Subroutine PRICEL returns:
 Original cell was already a primitive cell.
 

 Routine SETGRP: Setting up the symmetry group for a 
 face centered cubic supercell.


 Subroutine GETGRP returns: Found  6 space group operations
 (whereof  6 operations were pure point group operations)
 out of a pool of 48 trial point group operations.


The static configuration has the point symmetry C_3v.


Analysis of symmetry for dynamics (positions and initial velocities):
=====================================================================
 Subroutine PRICEL returns:
 Original cell was already a primitive cell.
 

 Routine SETGRP: Setting up the symmetry group for a 
 face centered cubic supercell.


 Subroutine GETGRP returns: Found  6 space group operations
 (whereof  6 operations were pure point group operations)
 out of a pool of 48 trial point group operations.


The dynamic configuration has the point symmetry C_3v.


Analysis of magnetic symmetry:
=====================================================================
 Subroutine PRICEL returns:
 Original cell was already a primitive cell.
 

 Subroutine MAGSYM returns: Found  6 space group operations
 (whereof  6 operations were pure point group operations)
 out of a pool of  6 trial space group operations
 (whereof  6 operations were pure point group operations)
 and found also     1 'primitive' translations


The magnetic configuration has the point symmetry C_3v.
 
 
 KPOINTS: Automatically generated mesh            

Automatic generation of k-mesh.
Space group operators:
 irot       det(A)        alpha          n_x          n_y          n_z        tau_x        tau_y        tau_z
    1     1.000000     0.000000     1.000000     0.000000     0.000000     0.000000     0.000000     0.000000
    2     1.000000   120.000000    -0.577350    -0.577350    -0.577350     0.000000     0.000000     0.000000
    3     1.000000   120.000000     0.577350     0.577350     0.577350     0.000000     0.000000     0.000000
    4    -1.000000   180.000000     0.707107    -0.707107     0.000000     0.000000     0.000000     0.000000
    5    -1.000000   180.000000     0.707107     0.000000    -0.707107     0.000000     0.000000     0.000000
    6    -1.000000   180.000000     0.000000    -0.707107     0.707107     0.000000     0.000000     0.000000
 
 Subroutine IBZKPT returns following result:
 ===========================================
 
 Found      1 irreducible k-points:
 
 Following reciprocal coordinates:
            Coordinates               Weight
  0.000000  0.000000  0.000000      1.000000
 
 Following cartesian coordinates:
            Coordinates               Weight
  0.000000  0.000000  0.000000      1.000000
 
 
 Subroutine IBZKPT_HF returns following result:
 ==============================================
 
 Found      1 k-points in 1st BZ
 the following      1 k-points will be used (e.g. in the exchange kernel)
 Following reciprocal coordinates:   # in IRBZ
  0.000000  0.000000  0.000000    1.00000000   1 t-inv F

 ----------------------------------------------------------------------------- 
|                                                                             |
|           W    W    AA    RRRRR   N    N  II  N    N   GGGG   !!!           |
|           W    W   A  A   R    R  NN   N  II  NN   N  G    G  !!!           |
|           W    W  A    A  R    R  N N  N  II  N N  N  G       !!!           |
|           W WW W  AAAAAA  RRRRR   N  N N  II  N  N N  G  GGG   !            |
|           WW  WW  A    A  R   R   N   NN  II  N   NN  G    G                |
|           W    W  A    A  R    R  N    N  II  N    N   GGGG   !!!           |
|                                                                             |
|      The number of bands has been changed from the values supplied          |
|      in the INCAR file. This is a result of running the parallel version.   |
|      The orbitals not found in the WAVECAR file will be initialized with    |
|      random numbers, which is usually adequate. For correlated              |
|      calculations, however, you should redo the groundstate calculation.    |
|      I found NBANDS    =       56  now  NBANDS  =      64                   |
|                                                                             |
 ----------------------------------------------------------------------------- 



--------------------------------------------------------------------------------------------------------




 Dimension of arrays:
   k-points           NKPTS =      1   k-points in BZ     NKDIM =      1   number of bands    NBANDS=     64
   number of dos      NEDOS =    301   number of ions     NIONS =     15
   non local maximal  LDIM  =      8   non local SUM 2l+1 LMDIM =     22
   total plane-waves  NPLWV =  64000
   max r-space proj   IRMAX =      1   max aug-charges    IRDMAX=   7422
   dimension x,y,z NGX =    40 NGY =   40 NGZ =   40
   dimension x,y,z NGXF=    80 NGYF=   80 NGZF=   80
   support grid    NGXF=    80 NGYF=   80 NGZF=   80
   ions per type =              14   1
 NGX,Y,Z   is equivalent  to a cutoff of  13.18, 13.18, 13.18 a.u.
 NGXF,Y,Z  is equivalent  to a cutoff of  26.36, 26.36, 26.36 a.u.


 I would recommend the setting:
   dimension x,y,z NGX =    37 NGY =   37 NGZ =   37
 SYSTEM =  unknown system                          
 POSCAR =  C                                       

 Startparameter for this run:
   NWRITE =      2    write-flag & timer
   PREC   = normal    normal or accurate (medium, high low for compatibility)
   ISTART =      1    job   : 0-new  1-cont  2-samecut
   ICHARG =      0    charge: 1-file 2-atom 10-const
   ISPIN  =      2    spin polarized calculation?
   LNONCOLLINEAR =      F non collinear calculations
   LSORBIT =      F    spin-orbit coupling
   INIWAV =      1    electr: 0-lowe 1-rand  2-diag
   LASPH  =      F    aspherical Exc in radial PAW
   METAGGA=      F    non-selfconsistent MetaGGA calc.

 Electronic Relaxation 1
   ENCUT  =  900.0 eV  66.15 Ry    8.13 a.u.  12.34 12.34 12.34*2*pi/ulx,y,z
   ENINI  =  900.0     initial cutoff
   ENAUG  = 1213.9 eV  augmentation charge cutoff
   NELM   =     60;   NELMIN=  2; NELMDL=  0     # of ELM steps 
   EDIFF  = 0.1E-11   stopping-criterion for ELM
   LREAL  =      F    real-space projection
   NLSPLINE    = F    spline interpolate recip. space projectors
   LCOMPAT=      F    compatible to vasp.4.4
   GGA_COMPAT  = T    GGA compatible to vasp.4.4-vasp.4.6
   LMAXPAW     = -100 max onsite density
   LMAXMIX     =    2 max onsite mixed and CHGCAR
   VOSKOWN=      0    Vosko Wilk Nusair interpolation
   ROPT   =    0.00000   0.00000
 Ionic relaxation
   EDIFFG = 0.1E-10   stopping-criterion for IOM
   NSW    =    100    number of steps for IOM
   NBLOCK =      1;   KBLOCK =    100    inner block; outer block 
   IBRION =      2    ionic relax: 0-MD 1-quasi-New 2-CG
   NFREE  =      1    steps in history (QN), initial steepest desc. (CG)
   ISIF   =      0    stress and relaxation
   IWAVPR =     11    prediction:  0-non 1-charg 2-wave 3-comb
   ISYM   =      3    0-nonsym 1-usesym 2-fastsym
   LCORR  =      T    Harris-Foulkes like correction to forces

   POTIM  = 0.5000    time-step for ionic-motion
   TEIN   =    0.0    initial temperature
   TEBEG  =    0.0;   TEEND  =   0.0 temperature during run
   SMASS  =  -3.00    Nose mass-parameter (am)
   estimated Nose-frequenzy (Omega)   =  0.10E-29 period in steps =****** mass=  -0.582E-27a.u.
   SCALEE = 1.0000    scale energy and forces
   NPACO  =    256;   APACO  = 16.0  distance and # of slots for P.C.
   PSTRESS=    0.0 pullay stress

  Mass of Ions in am
   POMASS =  12.01 14.00
  Ionic Valenz
   ZVAL   =   4.00  5.00
  Atomic Wigner-Seitz radii
   RWIGS  =  -1.00 -1.00
  virtual crystal weights 
   VCA    =   1.00  1.00
   NELECT =      62.0000    total number of electrons
   NUPDOWN=      -1.0000    fix difference up-down

 DOS related values:
   EMIN   =  10.00;   EMAX   =-10.00  energy-range for DOS
   EFERMI =   0.00
   ISMEAR =     1;   SIGMA  =   0.00  broadening in eV -4-tet -1-fermi 0-gaus

 Electronic relaxation 2 (details)
   IALGO  =     38    algorithm
   LDIAG  =      T    sub-space diagonalisation (order eigenvalues)
   LSUBROT=      F    optimize rotation matrix (better conditioning)
   TURBO    =      0    0=normal 1=particle mesh
   IRESTART =      0    0=no restart 2=restart with 2 vectors
   NREBOOT  =      0    no. of reboots
   NMIN     =      0    reboot dimension
   EREF     =   0.00    reference energy to select bands
   IMIX   =      1    mixing-type and parameters
     AMIX     =   0.40;   BMIX     =  1.00
     AMIX_MAG =   1.60;   BMIX_MAG =  1.00
     AMIN     =   0.10
     WC   =   100.;   INIMIX=   1;  MIXPRE=   1;  MAXMIX= -45

 Intra band minimization:
   WEIMIN = 0.0010     energy-eigenvalue tresh-hold
   EBREAK =  0.39E-14  absolut break condition
   DEPER  =   0.30     relativ break condition  

   TIME   =   0.40     timestep for ELM

  volume/ion in A,a.u.               =       6.05        40.84
  Fermi-wavevector in a.u.,A,eV,Ry     =   1.441717  2.724450 28.280359  2.078548
  Thomas-Fermi vector in A             =   2.560318
 
 Write flags
   LWAVE  =      T    write WAVECAR
   LCHARG =      T    write CHGCAR
   LVTOT  =      F    write LOCPOT, total local potential
   LVHAR  =      F    write LOCPOT, Hartree potential only
   LELF   =      F    write electronic localiz. function (ELF)
   LORBIT =      0    0 simple, 1 ext, 2 COOP (PROOUT)


 Dipole corrections
   LMONO  =      F    monopole corrections only (constant potential shift)
   LDIPOL =      F    correct potential (dipole corrections)
   IDIPOL =      0    1-x, 2-y, 3-z, 4-all directions 
   EPSILON=  1.0000000 bulk dielectric constant

 Exchange correlation treatment:
   GGA     =    --    GGA type
   LEXCH   =     8    internal setting for exchange type
   VOSKOWN=      0    Vosko Wilk Nusair interpolation
   EXXOEP  =     0    0=HF, 1=EXX-LHF (local Hartree Fock) 2=EXX OEP
   LHFCALC =     T    Hartree Fock is set to
   LSYMGRAD=     F    symmetrize gradient (conserves proper symmetry)
   PRECFOCK=normal    Normal, Fast or Accurate (Low or Medium for compatibility)
   LRHFCALC=     F    long range Hartree Fock
   LRSCOR  =     F    long range correlation only (use DFT for short range part)
   LTHOMAS =     F    Thomas Fermi screening in HF
   LMODELHF=     F    short range full HF, long range fraction AEXX
   ENCUT4O =  -1.0   cutoff for four orbital integrals eV
   LMAXFOCK=     4    L truncation for augmentation on plane wave grid
   LMAXFOCKAE=  -1    L truncation for all-electron charge restoration on plane wave grid
   NMAXFOCKAE=   1    number of basis functions for all-electron charge restoration
   LFOCKAEDFT=     F  apply the AE augmentation even for DFT
   NKREDX  =     1    reduce k-point grid by
   NKREDY  =     1    reduce k-point grid by
   NKREDZ  =     1    reduce k-point grid by
   SHIFTRED=     F    shift reduced grid of Gamma
   HFKIDENT=     F    idential grid for each k-point
   ODDONLY =     F    use only odd q-grid points
   EVENONLY=     F    use only even q-grid points
   HFALPHA =   -1.0000 decay constant for conv. correction
   MCALPHA =    0.0000 extent of test-charge in conv. correction in multipole expansion
   AEXX    =    0.0000 exact exchange contribution
   HFSCREEN=    0.0000 screening length (either q_TF or 0.3 A-1)
   HFSCREENC=   0.0000 screening length for correlation (either q_TF or 0.3 A-1)
   HFRCUT  =    0.0000 spherical cutoff for potential kernel
   ALDAX   =    1.0000 LDA exchange part
   AGGAX   =    1.0000 GGA exchange part
   ALDAC   =    1.0000 LDA correlation
   AGGAC   =    1.0000 GGA correlation
   NBANDSGWLOW=     1    first orbital included in HF term
   ENCUTFOCK=  -1.0 apply spherical cutoff to Coloumb kernel
 Linear response parameters
   LEPSILON=     F    determine dielectric tensor
   LRPA    =     F    only Hartree local field effects (RPA)
   LNABLA  =     F    use nabla operator in PAW spheres
   LVEL    =     F    velocity operator in full k-point grid
   LINTERFAST=   F  fast interpolation
   KINTER  =     0    interpolate to denser k-point grid
   CSHIFT  =0.1000    complex shift for real part using Kramers Kronig
   OMEGAMAX=  -1.0    maximum frequency
   DEG_THRESHOLD= 0.2000000E-02 threshold for treating states as degnerate
   RTIME   =    0.100 relaxation time in fs

 Orbital magnetization related:
   ORBITALMAG=     F  switch on orbital magnetization
   LCHIMAG   =     F  perturbation theory with respect to B field
   DQ        =  0.001000  dq finite difference perturbation B field



--------------------------------------------------------------------------------------------------------


 conjugate gradient relaxation of ions
 charge density and potential will be updated during run
 spin polarized calculation
 Variant of blocked Davidson
 Davidson routine will perform the subspace rotation
 perform sub-space diagonalisation
    after iterative eigenvector-optimisation
 Kerker-like  mixing scheme
 using additional bands           33
 reciprocal scheme for non local part
 use partial core corrections
 calculate Harris-corrections to forces 
   (improved forces if not selfconsistent)
 use gradient corrections 
 use of overlap-Matrix (Vanderbilt PP)
 Methfessel and Paxton  Order N= 1 SIGMA  =   0.00


--------------------------------------------------------------------------------------------------------


  energy-cutoff  :      900.00
  volume of cell :       90.78
      direct lattice vectors                 reciprocal lattice vectors
     3.567100903  3.567100903  0.000000000     0.140169850  0.140169850 -0.140169850
     0.000000000  3.567100903  3.567100903    -0.140169850  0.140169850  0.140169850
     3.567100903  0.000000000  3.567100903     0.140169850 -0.140169850  0.140169850

  length of vectors
     5.044642476  5.044642476  5.044642476     0.242781303  0.242781303  0.242781303


 
 old parameters found on file WAVECAR:
  energy-cutoff  :      900.00
  volume of cell :       90.78
      direct lattice vectors                 reciprocal lattice vectors
     3.567100903  3.567100903  0.000000000     0.140169850  0.140169850 -0.140169850
     0.000000000  3.567100903  3.567100903    -0.140169850  0.140169850  0.140169850
     3.567100903  0.000000000  3.567100903     0.140169850 -0.140169850  0.140169850

  length of vectors

 
 k-points in units of 2pi/SCALE and weight: Automatically generated mesh            
   0.00000000  0.00000000  0.00000000       1.000
 
 k-points in reciprocal lattice and weights: Automatically generated mesh            
   0.00000000  0.00000000  0.00000000       1.000
 
 position of ions in fractional coordinates (direct lattice) 
   0.99988407  0.99988407  0.99988407
   0.12297488  0.12297488  0.12297488
   0.99893652  0.99893652  0.49524027
   0.12752105  0.12752105  0.62039909
   0.99893652  0.49524027  0.99893652
   0.12752105  0.62039909  0.12752105
   0.04489478  0.48527022  0.48527022
   0.13572163  0.61645083  0.61645083
   0.49524027  0.99893652  0.99893652
   0.62039909  0.12752105  0.12752105
   0.48527022  0.04489478  0.48527022
   0.61645083  0.13572163  0.61645083
   0.48527022  0.48527022  0.04489478
   0.61645083  0.61645083  0.13572163
   0.49952804  0.49952804  0.49952804
 
 position of ions in cartesian coordinates  (Angst):
   7.13337471  7.13337471  7.13337471
   0.87732764  0.87732764  0.87732764
   5.32987937  7.12661472  5.32987937
   2.66790661  0.90976090  2.66790661
   7.12661472  5.32987937  5.32987937
   0.90976090  2.66790661  2.66790661
   1.89115204  1.89115204  3.46201568
   2.68307508  2.68307508  4.39788464
   5.32987937  5.32987937  7.12661472
   2.66790661  2.66790661  0.90976090
   3.46201568  1.89115204  1.89115204
   4.39788464  2.68307508  2.68307508
   1.89115204  3.46201568  1.89115204
   2.68307508  4.39788464  2.68307508
   3.56373382  3.56373382  3.56373382
 


--------------------------------------------------------------------------------------------------------


 use seriel FFT for wavefunctions x direction half grid
 k-point  1 :   0.0000 0.0000 0.0000  plane waves:    2801

 maximum and minimum number of plane-waves per node :      2801     2801

 maximum number of plane-waves:      2801
 maximum index in each direction: 
   IXMAX=   12   IYMAX=   12   IZMAX=   12
   IXMIN=    0   IYMIN=  -10   IZMIN=  -10

 WARNING: aliasing errors must be expected set NGX to  50 to avoid them
 WARNING: aliasing errors must be expected set NGY to  46 to avoid them
 WARNING: aliasing errors must be expected set NGZ to  46 to avoid them
 aliasing errors are usually negligible using standard VASP settings
 and one can safely disregard these warnings

 serial   3D FFT for wavefunctions
 parallel 3D FFT for charge:
    minimum data exchange during FFTs selected (reduces bandwidth)

 
 Radii for the augmentation spheres in the non-local exchange
 for species   1 augmentation radius   0.820 (default was   0.656)
       energy cutoff for augmentation   3600.0
 for species   2 augmentation radius   0.834 (default was   0.667)
       energy cutoff for augmentation   3600.0
  SETUP_FOCK is finished

 total amount of memory used by VASP on root node    44566. kBytes
========================================================================

   base      :      30000. kBytes
   nonl-proj :       1667. kBytes
   fftplans  :        685. kBytes
   grid      :       6215. kBytes
   one-center:        348. kBytes
   HF        :        193. kBytes
   nonlr-proj:       5363. kBytes
   wavefun   :         95. kBytes
 
     INWAV:  cpu time    0.1280: real time    0.1363
 charge density for first step will be calculated from the start-wavefunctions


--------------------------------------------------------------------------------------------------------


 Maximum index for augmentation-charges          394 (set IRDMAX)


--------------------------------------------------------------------------------------------------------


 initial charge from wavefunction
 FEWALD executed in parallel
    FEWALD:  cpu time    0.0000: real time    0.0003


----------------------------------------- Iteration    1(   1)  ---------------------------------------


    POTLOK:  cpu time    0.0240: real time    0.0249
    SETDIJ:  cpu time    0.0200: real time    0.0201
     EDDAV:  cpu time    0.0720: real time    0.0698
       DOS:  cpu time    0.0000: real time    0.0002
    CHARGE:  cpu time    0.0080: real time    0.0094
    MIXING:  cpu time    0.0000: real time    0.0002
    --------------------------------------------
      LOOP:  cpu time    0.1240: real time    0.1265

 eigenvalue-minimisations  :   256
 total energy-change (2. order) :-0.9705384E+02  (-0.1796112E-01)
 number of electron      62.0000000 magnetization       2.0000001
 augmentation part        1.4732239 magnetization       0.1659920

 Free energy of the ion-electron system (eV)
  ---------------------------------------------------
  alpha Z        PSCENC =        40.83557654
  Ewald energy   TEWEN  =     -2543.40949471
  -Hartree energ DENC   =      -331.61461394
  -exchange      EXHF   =         0.00000000
  -V(xc)+E(xc)   XCENC  =       135.15949179
  PAW double counting   =      5189.22786046    -5112.74739154
  entropy T*S    EENTRO =         0.00000000
  eigenvalues    EBANDS =       200.77845763
  atomic energy  EATOM  =      2324.71626894
  Solvation  Ediel_sol  =         0.00000000
  ---------------------------------------------------
  free energy    TOTEN  =       -97.05384483 eV

  energy without entropy =      -97.05384483  energy(sigma->0) =      -97.05384483
  exchange ACFDT corr.  =         0.00000000  see jH, gK, PRB 81, 115126


--------------------------------------------------------------------------------------------------------




----------------------------------------- Iteration    1(   2)  ---------------------------------------


    POTLOK:  cpu time    0.0240: real time    0.0235
    SETDIJ:  cpu time    0.0200: real time    0.0198
     EDDAV:  cpu time    0.0640: real time    0.0634
       DOS:  cpu time    0.0000: real time    0.0001
    CHARGE:  cpu time    0.0080: real time    0.0092
    MIXING:  cpu time    0.0000: real time    0.0002
    --------------------------------------------
      LOOP:  cpu time    0.1160: real time    0.1178

 eigenvalue-minimisations  :   256
 total energy-change (2. order) : 0.8943207E-02  (-0.4793047E-02)
 number of electron      62.0000000 magnetization       2.0000001
 augmentation part        1.4731055 magnetization       0.1656645

 Free energy of the ion-electron system (eV)
  ---------------------------------------------------
  alpha Z        PSCENC =        40.83557654
  Ewald energy   TEWEN  =     -2543.40949471
  -Hartree energ DENC   =      -332.09006545
  -exchange      EXHF   =         0.00000000
  -V(xc)+E(xc)   XCENC  =       135.16774360
  PAW double counting   =      5190.89768690    -5114.41739544
  entropy T*S    EENTRO =         0.00000000
  eigenvalues    EBANDS =       201.25477799
  atomic energy  EATOM  =      2324.71626894
  Solvation  Ediel_sol  =         0.00000000
  ---------------------------------------------------
  free energy    TOTEN  =       -97.04490162 eV

  energy without entropy =      -97.04490162  energy(sigma->0) =      -97.04490162
  exchange ACFDT corr.  =         0.00000000  see jH, gK, PRB 81, 115126


--------------------------------------------------------------------------------------------------------




----------------------------------------- Iteration    1(   3)  ---------------------------------------


    POTLOK:  cpu time    0.0240: real time    0.0232
    SETDIJ:  cpu time    0.0200: real time    0.0198
     EDDAV:  cpu time    0.1320: real time    0.1332
       DOS:  cpu time    0.0000: real time    0.0001
    CHARGE:  cpu time    0.0120: real time    0.0092
    MIXING:  cpu time    0.0000: real time    0.0002
    --------------------------------------------
      LOOP:  cpu time    0.1880: real time    0.1871

 eigenvalue-minimisations  :   384
 total energy-change (2. order) : 0.2315375E-03  (-0.2445183E-03)
 number of electron      62.0000000 magnetization       2.0000001
 augmentation part        1.4730545 magnetization       0.1655398

 Free energy of the ion-electron system (eV)
  ---------------------------------------------------
  alpha Z        PSCENC =        40.83557654
  Ewald energy   TEWEN  =     -2543.40949471
  -Hartree energ DENC   =      -332.19813280
  -exchange      EXHF   =         0.00000000
  -V(xc)+E(xc)   XCENC  =       135.16988471
  PAW double counting   =      5191.10702862    -5114.62702295
  entropy T*S    EENTRO =         0.00000000
  eigenvalues    EBANDS =       201.36122158
  atomic energy  EATOM  =      2324.71626894
  Solvation  Ediel_sol  =         0.00000000
  ---------------------------------------------------
  free energy    TOTEN  =       -97.04467008 eV

  energy without entropy =      -97.04467008  energy(sigma->0) =      -97.04467008
  exchange ACFDT corr.  =         0.00000000  see jH, gK, PRB 81, 115126


--------------------------------------------------------------------------------------------------------




----------------------------------------- Iteration    1(   4)  ---------------------------------------


    POTLOK:  cpu time    0.0240: real time    0.0230
    SETDIJ:  cpu time    0.0160: real time    0.0198
     EDDAV:  cpu time    0.1200: real time    0.1184
       DOS:  cpu time    0.0000: real time    0.0001
    CHARGE:  cpu time    0.0080: real time    0.0092
    MIXING:  cpu time    0.0000: real time    0.0002
    --------------------------------------------
      LOOP:  cpu time    0.1680: real time    0.1721

 eigenvalue-minimisations  :   384
 total energy-change (2. order) : 0.2373311E-04  (-0.1472396E-04)
 number of electron      62.0000000 magnetization       2.0000001
 augmentation part        1.4730478 magnetization       0.1655851

 Free energy of the ion-electron system (eV)
  ---------------------------------------------------
  alpha Z        PSCENC =        40.83557654
  Ewald energy   TEWEN  =     -2543.40949471
  -Hartree energ DENC   =      -332.22314893
  -exchange      EXHF   =         0.00000000
  -V(xc)+E(xc)   XCENC  =       135.17118698
  PAW double counting   =      5191.83907009    -5115.35896290
  entropy T*S    EENTRO =         0.00000000
  eigenvalues    EBANDS =       201.38485765
  atomic energy  EATOM  =      2324.71626894
  Solvation  Ediel_sol  =         0.00000000
  ---------------------------------------------------
  free energy    TOTEN  =       -97.04464635 eV

  energy without entropy =      -97.04464635  energy(sigma->0) =      -97.04464635
  exchange ACFDT corr.  =         0.00000000  see jH, gK, PRB 81, 115126


--------------------------------------------------------------------------------------------------------




----------------------------------------- Iteration    1(   5)  ---------------------------------------


    POTLOK:  cpu time    0.0240: real time    0.0229
    SETDIJ:  cpu time    0.0200: real time    0.0199
     EDDAV:  cpu time    0.1200: real time    0.1190
       DOS:  cpu time    0.0000: real time    0.0001
    CHARGE:  cpu time    0.0080: real time    0.0092
    MIXING:  cpu time    0.0000: real time    0.0002
    --------------------------------------------
      LOOP:  cpu time    0.1720: real time    0.1726

 eigenvalue-minimisations  :   384
 total energy-change (2. order) : 0.5407751E-05  (-0.1142274E-05)
 number of electron      62.0000000 magnetization       2.0000001
 augmentation part        1.4730490 magnetization       0.1655860

 Free energy of the ion-electron system (eV)
  ---------------------------------------------------
  alpha Z        PSCENC =        40.83557654
  Ewald energy   TEWEN  =     -2543.40949471
  -Hartree energ DENC   =      -332.23497079
  -exchange      EXHF   =         0.00000000
  -V(xc)+E(xc)   XCENC  =       135.17182922
  PAW double counting   =      5192.19394329    -5115.71381219
  entropy T*S    EENTRO =         0.00000000
  eigenvalues    EBANDS =       201.39601876
  atomic energy  EATOM  =      2324.71626894
  Solvation  Ediel_sol  =         0.00000000
  ---------------------------------------------------
  free energy    TOTEN  =       -97.04464094 eV

  energy without entropy =      -97.04464094  energy(sigma->0) =      -97.04464094
  exchange ACFDT corr.  =         0.00000000  see jH, gK, PRB 81, 115126


--------------------------------------------------------------------------------------------------------




----------------------------------------- Iteration    1(   6)  ---------------------------------------


    POTLOK:  cpu time    0.0240: real time    0.0230
    SETDIJ:  cpu time    0.0200: real time    0.0198
     EDDAV:  cpu time    0.1200: real time    0.1193
       DOS:  cpu time    0.0000: real time    0.0001
    CHARGE:  cpu time    0.0080: real time    0.0092
    MIXING:  cpu time    0.0000: real time    0.0002
    --------------------------------------------
      LOOP:  cpu time    0.1720: real time    0.1730

 eigenvalue-minimisations  :   384
 total energy-change (2. order) : 0.9675873E-06  (-0.1919117E-06)
 number of electron      62.0000000 magnetization       2.0000001
 augmentation part        1.4730516 magnetization       0.1655891

 Free energy of the ion-electron system (eV)
  ---------------------------------------------------
  alpha Z        PSCENC =        40.83557654
  Ewald energy   TEWEN  =     -2543.40949471
  -Hartree energ DENC   =      -332.24097628
  -exchange      EXHF   =         0.00000000
  -V(xc)+E(xc)   XCENC  =       135.17223977
  PAW double counting   =      5192.40069937    -5115.92049767
  entropy T*S    EENTRO =         0.00000000
  eigenvalues    EBANDS =       201.40154407
  atomic energy  EATOM  =      2324.71626894
  Solvation  Ediel_sol  =         0.00000000
  ---------------------------------------------------
  free energy    TOTEN  =       -97.04463998 eV

  energy without entropy =      -97.04463998  energy(sigma->0) =      -97.04463998
  exchange ACFDT corr.  =         0.00000000  see jH, gK, PRB 81, 115126


--------------------------------------------------------------------------------------------------------




----------------------------------------- Iteration    1(   7)  ---------------------------------------


    POTLOK:  cpu time    0.0240: real time    0.0228
    SETDIJ:  cpu time    0.0200: real time    0.0198
     EDDAV:  cpu time    0.1200: real time    0.1191
       DOS:  cpu time    0.0000: real time    0.0001
    CHARGE:  cpu time    0.0080: real time    0.0092
    MIXING:  cpu time    0.0000: real time    0.0002
    --------------------------------------------
      LOOP:  cpu time    0.1720: real time    0.1727

 eigenvalue-minimisations  :   384
 total energy-change (2. order) : 0.1925919E-06  (-0.3949803E-07)
 number of electron      62.0000000 magnetization       2.0000001
 augmentation part        1.4730519 magnetization       0.1655900

 Free energy of the ion-electron system (eV)
  ---------------------------------------------------
  alpha Z        PSCENC =        40.83557654
  Ewald energy   TEWEN  =     -2543.40949471
  -Hartree energ DENC   =      -332.24425995
  -exchange      EXHF   =         0.00000000
  -V(xc)+E(xc)   XCENC  =       135.17245544
  PAW double counting   =      5192.50727446    -5116.02705122
  entropy T*S    EENTRO =         0.00000000
  eigenvalues    EBANDS =       201.40459072
  atomic energy  EATOM  =      2324.71626894
  Solvation  Ediel_sol  =         0.00000000
  ---------------------------------------------------
  free energy    TOTEN  =       -97.04463978 eV

  energy without entropy =      -97.04463978  energy(sigma->0) =      -97.04463978
  exchange ACFDT corr.  =         0.00000000  see jH, gK, PRB 81, 115126


--------------------------------------------------------------------------------------------------------




----------------------------------------- Iteration    1(   8)  ---------------------------------------


    POTLOK:  cpu time    0.0240: real time    0.0229
    SETDIJ:  cpu time    0.0200: real time    0.0198
     EDDAV:  cpu time    0.1200: real time    0.1201
       DOS:  cpu time    0.0000: real time    0.0001
    CHARGE:  cpu time    0.0080: real time    0.0094
    MIXING:  cpu time    0.0000: real time    0.0002
    --------------------------------------------
      LOOP:  cpu time    0.1720: real time    0.1739

 eigenvalue-minimisations  :   384
 total energy-change (2. order) : 0.4413459E-07  (-0.1044300E-07)
 number of electron      62.0000000 magnetization       2.0000001
 augmentation part        1.4730524 magnetization       0.1655905

 Free energy of the ion-electron system (eV)
  ---------------------------------------------------
  alpha Z        PSCENC =        40.83557654
  Ewald energy   TEWEN  =     -2543.40949471
  -Hartree energ DENC   =      -332.24610809
  -exchange      EXHF   =         0.00000000
  -V(xc)+E(xc)   XCENC  =       135.17259127
  PAW double counting   =      5192.56556154    -5116.08530852
  entropy T*S    EENTRO =         0.00000000
  eigenvalues    EBANDS =       201.40627331
  atomic energy  EATOM  =      2324.71626894
  Solvation  Ediel_sol  =         0.00000000
  ---------------------------------------------------
  free energy    TOTEN  =       -97.04463974 eV

  energy without entropy =      -97.04463974  energy(sigma->0) =      -97.04463974
  exchange ACFDT corr.  =         0.00000000  see jH, gK, PRB 81, 115126


--------------------------------------------------------------------------------------------------------




----------------------------------------- Iteration    1(   9)  ---------------------------------------


    POTLOK:  cpu time    0.0240: real time    0.0230
    SETDIJ:  cpu time    0.0200: real time    0.0198
     EDDAV:  cpu time    0.1760: real time    0.1777
       DOS:  cpu time    0.0000: real time    0.0001
    CHARGE:  cpu time    0.0080: real time    0.0093
    MIXING:  cpu time    0.0000: real time    0.0002
    --------------------------------------------
      LOOP:  cpu time    0.2280: real time    0.2315

 eigenvalue-minimisations  :   512
 total energy-change (2. order) : 0.8558800E-08  (-0.3159154E-08)
 number of electron      62.0000000 magnetization       2.0000001
 augmentation part        1.4730527 magnetization       0.1655908

 Free energy of the ion-electron system (eV)
  ---------------------------------------------------
  alpha Z        PSCENC =        40.83557654
  Ewald energy   TEWEN  =     -2543.40949471
  -Hartree energ DENC   =      -332.24718678
  -exchange      EXHF   =         0.00000000
  -V(xc)+E(xc)   XCENC  =       135.17266691
  PAW double counting   =      5192.60080663    -5116.12054365
  entropy T*S    EENTRO =         0.00000000
  eigenvalues    EBANDS =       201.40726640
  atomic energy  EATOM  =      2324.71626894
  Solvation  Ediel_sol  =         0.00000000
  ---------------------------------------------------
  free energy    TOTEN  =       -97.04463973 eV

  energy without entropy =      -97.04463973  energy(sigma->0) =      -97.04463973
  exchange ACFDT corr.  =         0.00000000  see jH, gK, PRB 81, 115126


--------------------------------------------------------------------------------------------------------




----------------------------------------- Iteration    1(  10)  ---------------------------------------


    POTLOK:  cpu time    0.0200: real time    0.0229
    SETDIJ:  cpu time    0.0200: real time    0.0198
     EDDAV:  cpu time    0.1800: real time    0.1797
       DOS:  cpu time    0.0000: real time    0.0001
    CHARGE:  cpu time    0.0080: real time    0.0093
    MIXING:  cpu time    0.0000: real time    0.0002
    --------------------------------------------
      LOOP:  cpu time    0.2320: real time    0.2334

 eigenvalue-minimisations  :   512
 total energy-change (2. order) : 0.6859409E-08  (-0.1025476E-08)
 number of electron      62.0000000 magnetization       2.0000001
 augmentation part        1.4730528 magnetization       0.1655910

 Free energy of the ion-electron system (eV)
  ---------------------------------------------------
  alpha Z        PSCENC =        40.83557654
  Ewald energy   TEWEN  =     -2543.40949471
  -Hartree energ DENC   =      -332.24782352
  -exchange      EXHF   =         0.00000000
  -V(xc)+E(xc)   XCENC  =       135.17271506
  PAW double counting   =      5192.62128122    -5116.14100639
  entropy T*S    EENTRO =         0.00000000
  eigenvalues    EBANDS =       201.40784314
  atomic energy  EATOM  =      2324.71626894
  Solvation  Ediel_sol  =         0.00000000
  ---------------------------------------------------
  free energy    TOTEN  =       -97.04463972 eV

  energy without entropy =      -97.04463972  energy(sigma->0) =      -97.04463972
  exchange ACFDT corr.  =         0.00000000  see jH, gK, PRB 81, 115126


--------------------------------------------------------------------------------------------------------




----------------------------------------- Iteration    1(  11)  ---------------------------------------


    POTLOK:  cpu time    0.0240: real time    0.0228
    SETDIJ:  cpu time    0.0200: real time    0.0198
     EDDAV:  cpu time    0.1840: real time    0.1831
       DOS:  cpu time    0.0000: real time    0.0001
    CHARGE:  cpu time    0.0080: real time    0.0093
    MIXING:  cpu time    0.0000: real time    0.0002
    --------------------------------------------
      LOOP:  cpu time    0.2360: real time    0.2370

 eigenvalue-minimisations  :   512
 total energy-change (2. order) : 0.3313744E-08  (-0.3690448E-09)
 number of electron      62.0000000 magnetization       2.0000001
 augmentation part        1.4730529 magnetization       0.1655911

 Free energy of the ion-electron system (eV)
  ---------------------------------------------------
  alpha Z        PSCENC =        40.83557654
  Ewald energy   TEWEN  =     -2543.40949471
  -Hartree energ DENC   =      -332.24820712
  -exchange      EXHF   =         0.00000000
  -V(xc)+E(xc)   XCENC  =       135.17274284
  PAW double counting   =      5192.63359504    -5116.15331602
  entropy T*S    EENTRO =         0.00000000
  eigenvalues    EBANDS =       201.40819478
  atomic energy  EATOM  =      2324.71626894
  Solvation  Ediel_sol  =         0.00000000
  ---------------------------------------------------
  free energy    TOTEN  =       -97.04463972 eV

  energy without entropy =      -97.04463972  energy(sigma->0) =      -97.04463972
  exchange ACFDT corr.  =         0.00000000  see jH, gK, PRB 81, 115126


--------------------------------------------------------------------------------------------------------




----------------------------------------- Iteration    1(  12)  ---------------------------------------


    POTLOK:  cpu time    0.0240: real time    0.0229
    SETDIJ:  cpu time    0.0200: real time    0.0198
     EDDAV:  cpu time    0.1800: real time    0.1819
       DOS:  cpu time    0.0000: real time    0.0001
    CHARGE:  cpu time    0.0120: real time    0.0092
    MIXING:  cpu time    0.0000: real time    0.0002
    --------------------------------------------
      LOOP:  cpu time    0.2360: real time    0.2356

 eigenvalue-minimisations  :   512
 total energy-change (2. order) : 0.3900823E-08  (-0.1432970E-09)
 number of electron      62.0000000 magnetization       2.0000001
 augmentation part        1.4730529 magnetization       0.1655911

 Free energy of the ion-electron system (eV)
  ---------------------------------------------------
  alpha Z        PSCENC =        40.83557654
  Ewald energy   TEWEN  =     -2543.40949471
  -Hartree energ DENC   =      -332.24843911
  -exchange      EXHF   =         0.00000000
  -V(xc)+E(xc)   XCENC  =       135.17276064
  PAW double counting   =      5192.64121604    -5116.16093237
  entropy T*S    EENTRO =         0.00000000
  eigenvalues    EBANDS =       201.40840433
  atomic energy  EATOM  =      2324.71626894
  Solvation  Ediel_sol  =         0.00000000
  ---------------------------------------------------
  free energy    TOTEN  =       -97.04463972 eV

  energy without entropy =      -97.04463972  energy(sigma->0) =      -97.04463972
  exchange ACFDT corr.  =         0.00000000  see jH, gK, PRB 81, 115126


--------------------------------------------------------------------------------------------------------




----------------------------------------- Iteration    1(  13)  ---------------------------------------


    POTLOK:  cpu time    0.0200: real time    0.0228
    SETDIJ:  cpu time    0.0200: real time    0.0198
     EDDAV:  cpu time    0.1800: real time    0.1808
       DOS:  cpu time    0.0000: real time    0.0001
    CHARGE:  cpu time    0.0120: real time    0.0092
    MIXING:  cpu time    0.0000: real time    0.0002
    --------------------------------------------
      LOOP:  cpu time    0.2320: real time    0.2344

 eigenvalue-minimisations  :   512
 total energy-change (2. order) : 0.2292836E-08  (-0.5797872E-10)
 number of electron      62.0000000 magnetization       2.0000001
 augmentation part        1.4730530 magnetization       0.1655912

 Free energy of the ion-electron system (eV)
  ---------------------------------------------------
  alpha Z        PSCENC =        40.83557654
  Ewald energy   TEWEN  =     -2543.40949471
  -Hartree energ DENC   =      -332.24858173
  -exchange      EXHF   =         0.00000000
  -V(xc)+E(xc)   XCENC  =       135.17277117
  PAW double counting   =      5192.64589849    -5116.16561310
  entropy T*S    EENTRO =         0.00000000
  eigenvalues    EBANDS =       201.40853469
  atomic energy  EATOM  =      2324.71626894
  Solvation  Ediel_sol  =         0.00000000
  ---------------------------------------------------
  free energy    TOTEN  =       -97.04463971 eV

  energy without entropy =      -97.04463971  energy(sigma->0) =      -97.04463971
  exchange ACFDT corr.  =         0.00000000  see jH, gK, PRB 81, 115126


--------------------------------------------------------------------------------------------------------




----------------------------------------- Iteration    1(  14)  ---------------------------------------


    POTLOK:  cpu time    0.0240: real time    0.0228
    SETDIJ:  cpu time    0.0200: real time    0.0198
     EDDAV:  cpu time    0.1800: real time    0.1809
       DOS:  cpu time    0.0000: real time    0.0001
    CHARGE:  cpu time    0.0080: real time    0.0092
    MIXING:  cpu time    0.0000: real time    0.0002
    --------------------------------------------
      LOOP:  cpu time    0.2320: real time    0.2345

 eigenvalue-minimisations  :   512
 total energy-change (2. order) : 0.2041816E-08  (-0.2628461E-10)
 number of electron      62.0000000 magnetization       2.0000001
 augmentation part        1.4730530 magnetization       0.1655912

 Free energy of the ion-electron system (eV)
  ---------------------------------------------------
  alpha Z        PSCENC =        40.83557654
  Ewald energy   TEWEN  =     -2543.40949471
  -Hartree energ DENC   =      -332.24866982
  -exchange      EXHF   =         0.00000000
  -V(xc)+E(xc)   XCENC  =       135.17277796
  PAW double counting   =      5192.64881920    -5116.16853200
  entropy T*S    EENTRO =         0.00000000
  eigenvalues    EBANDS =       201.40861419
  atomic energy  EATOM  =      2324.71626894
  Solvation  Ediel_sol  =         0.00000000
  ---------------------------------------------------
  free energy    TOTEN  =       -97.04463971 eV

  energy without entropy =      -97.04463971  energy(sigma->0) =      -97.04463971
  exchange ACFDT corr.  =         0.00000000  see jH, gK, PRB 81, 115126


--------------------------------------------------------------------------------------------------------




----------------------------------------- Iteration    1(  15)  ---------------------------------------


    POTLOK:  cpu time    0.0240: real time    0.0228
    SETDIJ:  cpu time    0.0200: real time    0.0198
     EDDAV:  cpu time    0.1480: real time    0.1487
       DOS:  cpu time    0.0000: real time    0.0001
    CHARGE:  cpu time    0.0080: real time    0.0092
    MIXING:  cpu time    0.0000: real time    0.0002
    --------------------------------------------
      LOOP:  cpu time    0.2000: real time    0.2023

 eigenvalue-minimisations  :   448
 total energy-change (2. order) : 0.1194621E-08  (-0.1271839E-10)
 number of electron      62.0000000 magnetization       2.0000001
 augmentation part        1.4730530 magnetization       0.1655912

 Free energy of the ion-electron system (eV)
  ---------------------------------------------------
  alpha Z        PSCENC =        40.83557654
  Ewald energy   TEWEN  =     -2543.40949471
  -Hartree energ DENC   =      -332.24872480
  -exchange      EXHF   =         0.00000000
  -V(xc)+E(xc)   XCENC  =       135.17278207
  PAW double counting   =      5192.65066176    -5116.17037386
  entropy T*S    EENTRO =         0.00000000
  eigenvalues    EBANDS =       201.40866436
  atomic energy  EATOM  =      2324.71626894
  Solvation  Ediel_sol  =         0.00000000
  ---------------------------------------------------
  free energy    TOTEN  =       -97.04463971 eV

  energy without entropy =      -97.04463971  energy(sigma->0) =      -97.04463971
  exchange ACFDT corr.  =         0.00000000  see jH, gK, PRB 81, 115126


--------------------------------------------------------------------------------------------------------




----------------------------------------- Iteration    1(  16)  ---------------------------------------


    POTLOK:  cpu time    0.0240: real time    0.0228
    SETDIJ:  cpu time    0.0200: real time    0.0198
     EDDAV:  cpu time    0.1840: real time    0.1838
       DOS:  cpu time    0.0000: real time    0.0001
    CHARGE:  cpu time    0.0080: real time    0.0092
    MIXING:  cpu time    0.0000: real time    0.0002
    --------------------------------------------
      LOOP:  cpu time    0.2360: real time    0.2373

 eigenvalue-minimisations  :   512
 total energy-change (2. order) : 0.9263204E-09  (-0.4259648E-11)
 number of electron      62.0000000 magnetization       2.0000001
 augmentation part        1.4730530 magnetization       0.1655912

 Free energy of the ion-electron system (eV)
  ---------------------------------------------------
  alpha Z        PSCENC =        40.83557654
  Ewald energy   TEWEN  =     -2543.40949471
  -Hartree energ DENC   =      -332.24875929
  -exchange      EXHF   =         0.00000000
  -V(xc)+E(xc)   XCENC  =       135.17278473
  PAW double counting   =      5192.65181960    -5116.17153101
  entropy T*S    EENTRO =         0.00000000
  eigenvalues    EBANDS =       201.40869549
  atomic energy  EATOM  =      2324.71626894
  Solvation  Ediel_sol  =         0.00000000
  ---------------------------------------------------
  free energy    TOTEN  =       -97.04463971 eV

  energy without entropy =      -97.04463971  energy(sigma->0) =      -97.04463971
  exchange ACFDT corr.  =         0.00000000  see jH, gK, PRB 81, 115126


--------------------------------------------------------------------------------------------------------




----------------------------------------- Iteration    1(  17)  ---------------------------------------


    POTLOK:  cpu time    0.0240: real time    0.0227
    SETDIJ:  cpu time    0.0200: real time    0.0198
     EDDAV:  cpu time    0.1880: real time    0.1912
       DOS:  cpu time    0.0040: real time    0.0001
    CHARGE:  cpu time    0.0080: real time    0.0092
    MIXING:  cpu time    0.0000: real time    0.0002
    --------------------------------------------
      LOOP:  cpu time    0.2440: real time    0.2446

 eigenvalue-minimisations  :   512
 total energy-change (2. order) : 0.5334186E-09  (-0.3516951E-11)
 number of electron      62.0000000 magnetization       2.0000001
 augmentation part        1.4730530 magnetization       0.1655912

 Free energy of the ion-electron system (eV)
  ---------------------------------------------------
  alpha Z        PSCENC =        40.83557654
  Ewald energy   TEWEN  =     -2543.40949471
  -Hartree energ DENC   =      -332.24878111
  -exchange      EXHF   =         0.00000000
  -V(xc)+E(xc)   XCENC  =       135.17278636
  PAW double counting   =      5192.65255231    -5116.17226343
  entropy T*S    EENTRO =         0.00000000
  eigenvalues    EBANDS =       201.40871539
  atomic energy  EATOM  =      2324.71626894
  Solvation  Ediel_sol  =         0.00000000
  ---------------------------------------------------
  free energy    TOTEN  =       -97.04463971 eV

  energy without entropy =      -97.04463971  energy(sigma->0) =      -97.04463971
  exchange ACFDT corr.  =         0.00000000  see jH, gK, PRB 81, 115126


--------------------------------------------------------------------------------------------------------




----------------------------------------- Iteration    1(  18)  ---------------------------------------


    POTLOK:  cpu time    0.0240: real time    0.0228
    SETDIJ:  cpu time    0.0200: real time    0.0198
     EDDAV:  cpu time    0.1840: real time    0.1852
       DOS:  cpu time    0.0000: real time    0.0001
    CHARGE:  cpu time    0.0080: real time    0.0092
    MIXING:  cpu time    0.0000: real time    0.0002
    --------------------------------------------
      LOOP:  cpu time    0.2360: real time    0.2386

 eigenvalue-minimisations  :   512
 total energy-change (2. order) : 0.3824425E-09  ( 0.9559020E-13)
 number of electron      62.0000000 magnetization       2.0000001
 augmentation part        1.4730530 magnetization       0.1655912

 Free energy of the ion-electron system (eV)
  ---------------------------------------------------
  alpha Z        PSCENC =        40.83557654
  Ewald energy   TEWEN  =     -2543.40949471
  -Hartree energ DENC   =      -332.24879496
  -exchange      EXHF   =         0.00000000
  -V(xc)+E(xc)   XCENC  =       135.17278743
  PAW double counting   =      5192.65302110    -5116.17273194
  entropy T*S    EENTRO =         0.00000000
  eigenvalues    EBANDS =       201.40872790
  atomic energy  EATOM  =      2324.71626894
  Solvation  Ediel_sol  =         0.00000000
  ---------------------------------------------------
  free energy    TOTEN  =       -97.04463971 eV

  energy without entropy =      -97.04463971  energy(sigma->0) =      -97.04463971
  exchange ACFDT corr.  =         0.00000000  see jH, gK, PRB 81, 115126


--------------------------------------------------------------------------------------------------------




----------------------------------------- Iteration    1(  19)  ---------------------------------------


    POTLOK:  cpu time    0.0240: real time    0.0228
    SETDIJ:  cpu time    0.0200: real time    0.0198
     EDDAV:  cpu time    0.1840: real time    0.1838
       DOS:  cpu time    0.0000: real time    0.0001
    CHARGE:  cpu time    0.0080: real time    0.0092
    MIXING:  cpu time    0.0000: real time    0.0002
    --------------------------------------------
      LOOP:  cpu time    0.2360: real time    0.2374

 eigenvalue-minimisations  :   512
 total energy-change (2. order) : 0.2246452E-09  ( 0.1337680E-11)
 number of electron      62.0000000 magnetization       2.0000001
 augmentation part        1.4730530 magnetization       0.1655912

 Free energy of the ion-electron system (eV)
  ---------------------------------------------------
  alpha Z        PSCENC =        40.83557654
  Ewald energy   TEWEN  =     -2543.40949471
  -Hartree energ DENC   =      -332.24880382
  -exchange      EXHF   =         0.00000000
  -V(xc)+E(xc)   XCENC  =       135.17278809
  PAW double counting   =      5192.65331936    -5116.17303009
  entropy T*S    EENTRO =         0.00000000
  eigenvalues    EBANDS =       201.40873598
  atomic energy  EATOM  =      2324.71626894
  Solvation  Ediel_sol  =         0.00000000
  ---------------------------------------------------
  free energy    TOTEN  =       -97.04463971 eV

  energy without entropy =      -97.04463971  energy(sigma->0) =      -97.04463971
  exchange ACFDT corr.  =         0.00000000  see jH, gK, PRB 81, 115126


--------------------------------------------------------------------------------------------------------




----------------------------------------- Iteration    1(  20)  ---------------------------------------


    POTLOK:  cpu time    0.0240: real time    0.0228
    SETDIJ:  cpu time    0.0200: real time    0.0198
     EDDAV:  cpu time    0.1880: real time    0.1877
       DOS:  cpu time    0.0000: real time    0.0001
    CHARGE:  cpu time    0.0080: real time    0.0092
    MIXING:  cpu time    0.0000: real time    0.0002
    --------------------------------------------
      LOOP:  cpu time    0.2400: real time    0.2412

 eigenvalue-minimisations  :   512
 total energy-change (2. order) : 0.1500666E-09  (-0.1177235E-11)
 number of electron      62.0000000 magnetization       2.0000001
 augmentation part        1.4730530 magnetization       0.1655912

 Free energy of the ion-electron system (eV)
  ---------------------------------------------------
  alpha Z        PSCENC =        40.83557654
  Ewald energy   TEWEN  =     -2543.40949471
  -Hartree energ DENC   =      -332.24880950
  -exchange      EXHF   =         0.00000000
  -V(xc)+E(xc)   XCENC  =       135.17278853
  PAW double counting   =      5192.65350931    -5116.17321994
  entropy T*S    EENTRO =         0.00000000
  eigenvalues    EBANDS =       201.40874112
  atomic energy  EATOM  =      2324.71626894
  Solvation  Ediel_sol  =         0.00000000
  ---------------------------------------------------
  free energy    TOTEN  =       -97.04463971 eV

  energy without entropy =      -97.04463971  energy(sigma->0) =      -97.04463971
  exchange ACFDT corr.  =         0.00000000  see jH, gK, PRB 81, 115126


--------------------------------------------------------------------------------------------------------




----------------------------------------- Iteration    1(  21)  ---------------------------------------


    POTLOK:  cpu time    0.0240: real time    0.0227
    SETDIJ:  cpu time    0.0200: real time    0.0198
     EDDAV:  cpu time    0.1800: real time    0.1822
       DOS:  cpu time    0.0000: real time    0.0001
    CHARGE:  cpu time    0.0080: real time    0.0093
    MIXING:  cpu time    0.0000: real time    0.0002
    --------------------------------------------
      LOOP:  cpu time    0.2320: real time    0.2357

 eigenvalue-minimisations  :   512
 total energy-change (2. order) : 0.8731149E-10  (-0.4525547E-12)
 number of electron      62.0000000 magnetization       2.0000001
 augmentation part        1.4730530 magnetization       0.1655912

 Free energy of the ion-electron system (eV)
  ---------------------------------------------------
  alpha Z        PSCENC =        40.83557654
  Ewald energy   TEWEN  =     -2543.40949471
  -Hartree energ DENC   =      -332.24881317
  -exchange      EXHF   =         0.00000000
  -V(xc)+E(xc)   XCENC  =       135.17278881
  PAW double counting   =      5192.65363065    -5116.17334123
  entropy T*S    EENTRO =         0.00000000
  eigenvalues    EBANDS =       201.40874446
  atomic energy  EATOM  =      2324.71626894
  Solvation  Ediel_sol  =         0.00000000
  ---------------------------------------------------
  free energy    TOTEN  =       -97.04463971 eV

  energy without entropy =      -97.04463971  energy(sigma->0) =      -97.04463971
  exchange ACFDT corr.  =         0.00000000  see jH, gK, PRB 81, 115126


--------------------------------------------------------------------------------------------------------




----------------------------------------- Iteration    1(  22)  ---------------------------------------


    POTLOK:  cpu time    0.0200: real time    0.0227
    SETDIJ:  cpu time    0.0200: real time    0.0199
     EDDAV:  cpu time    0.1840: real time    0.1852
       DOS:  cpu time    0.0000: real time    0.0001
    CHARGE:  cpu time    0.0120: real time    0.0092
    MIXING:  cpu time    0.0000: real time    0.0002
    --------------------------------------------
      LOOP:  cpu time    0.2400: real time    0.2387

 eigenvalue-minimisations  :   512
 total energy-change (2. order) : 0.5775291E-10  (-0.2381775E-13)
 number of electron      62.0000000 magnetization       2.0000001
 augmentation part        1.4730530 magnetization       0.1655912

 Free energy of the ion-electron system (eV)
  ---------------------------------------------------
  alpha Z        PSCENC =        40.83557654
  Ewald energy   TEWEN  =     -2543.40949471
  -Hartree energ DENC   =      -332.24881554
  -exchange      EXHF   =         0.00000000
  -V(xc)+E(xc)   XCENC  =       135.17278899
  PAW double counting   =      5192.65370861    -5116.17341914
  entropy T*S    EENTRO =         0.00000000
  eigenvalues    EBANDS =       201.40874661
  atomic energy  EATOM  =      2324.71626894
  Solvation  Ediel_sol  =         0.00000000
  ---------------------------------------------------
  free energy    TOTEN  =       -97.04463971 eV

  energy without entropy =      -97.04463971  energy(sigma->0) =      -97.04463971
  exchange ACFDT corr.  =         0.00000000  see jH, gK, PRB 81, 115126


--------------------------------------------------------------------------------------------------------




----------------------------------------- Iteration    1(  23)  ---------------------------------------


    POTLOK:  cpu time    0.0240: real time    0.0229
    SETDIJ:  cpu time    0.0160: real time    0.0198
     EDDAV:  cpu time    0.1840: real time    0.1827
       DOS:  cpu time    0.0000: real time    0.0001
    CHARGE:  cpu time    0.0080: real time    0.0092
    MIXING:  cpu time    0.0000: real time    0.0002
    --------------------------------------------
      LOOP:  cpu time    0.2320: real time    0.2361

 eigenvalue-minimisations  :   512
 total energy-change (2. order) : 0.2910383E-10  (-0.5115096E-11)
 number of electron      62.0000000 magnetization       2.0000001
 augmentation part        1.4730530 magnetization       0.1655912

 Free energy of the ion-electron system (eV)
  ---------------------------------------------------
  alpha Z        PSCENC =        40.83557654
  Ewald energy   TEWEN  =     -2543.40949471
  -Hartree energ DENC   =      -332.24881708
  -exchange      EXHF   =         0.00000000
  -V(xc)+E(xc)   XCENC  =       135.17278910
  PAW double counting   =      5192.65375870    -5116.17346921
  entropy T*S    EENTRO =         0.00000000
  eigenvalues    EBANDS =       201.40874802
  atomic energy  EATOM  =      2324.71626894
  Solvation  Ediel_sol  =         0.00000000
  ---------------------------------------------------
  free energy    TOTEN  =       -97.04463971 eV

  energy without entropy =      -97.04463971  energy(sigma->0) =      -97.04463971
  exchange ACFDT corr.  =         0.00000000  see jH, gK, PRB 81, 115126


--------------------------------------------------------------------------------------------------------




----------------------------------------- Iteration    1(  24)  ---------------------------------------


    POTLOK:  cpu time    0.0240: real time    0.0228
    SETDIJ:  cpu time    0.0200: real time    0.0198
     EDDAV:  cpu time    0.1840: real time    0.1839
       DOS:  cpu time    0.0000: real time    0.0001
    CHARGE:  cpu time    0.0080: real time    0.0092
    MIXING:  cpu time    0.0000: real time    0.0002
    --------------------------------------------
      LOOP:  cpu time    0.2360: real time    0.2375

 eigenvalue-minimisations  :   512
 total energy-change (2. order) : 0.2955858E-10  ( 0.8009773E-12)
 number of electron      62.0000000 magnetization       2.0000001
 augmentation part        1.4730530 magnetization       0.1655912

 Free energy of the ion-electron system (eV)
  ---------------------------------------------------
  alpha Z        PSCENC =        40.83557654
  Ewald energy   TEWEN  =     -2543.40949471
  -Hartree energ DENC   =      -332.24881808
  -exchange      EXHF   =         0.00000000
  -V(xc)+E(xc)   XCENC  =       135.17278918
  PAW double counting   =      5192.65379087    -5116.17350137
  entropy T*S    EENTRO =         0.00000000
  eigenvalues    EBANDS =       201.40874892
  atomic energy  EATOM  =      2324.71626894
  Solvation  Ediel_sol  =         0.00000000
  ---------------------------------------------------
  free energy    TOTEN  =       -97.04463971 eV

  energy without entropy =      -97.04463971  energy(sigma->0) =      -97.04463971
  exchange ACFDT corr.  =         0.00000000  see jH, gK, PRB 81, 115126


--------------------------------------------------------------------------------------------------------




----------------------------------------- Iteration    1(  25)  ---------------------------------------


    POTLOK:  cpu time    0.0240: real time    0.0228
    SETDIJ:  cpu time    0.0200: real time    0.0199
     EDDAV:  cpu time    0.1840: real time    0.1861
       DOS:  cpu time    0.0000: real time    0.0001
    CHARGE:  cpu time    0.0120: real time    0.0092
    MIXING:  cpu time    0.0000: real time    0.0002
    --------------------------------------------
      LOOP:  cpu time    0.2400: real time    0.2395

 eigenvalue-minimisations  :   512
 total energy-change (2. order) : 0.1273293E-10  ( 0.2875481E-11)
 number of electron      62.0000000 magnetization       2.0000001
 augmentation part        1.4730530 magnetization       0.1655912

 Free energy of the ion-electron system (eV)
  ---------------------------------------------------
  alpha Z        PSCENC =        40.83557654
  Ewald energy   TEWEN  =     -2543.40949471
  -Hartree energ DENC   =      -332.24881873
  -exchange      EXHF   =         0.00000000
  -V(xc)+E(xc)   XCENC  =       135.17278923
  PAW double counting   =      5192.65381164    -5116.17352214
  entropy T*S    EENTRO =         0.00000000
  eigenvalues    EBANDS =       201.40874952
  atomic energy  EATOM  =      2324.71626894
  Solvation  Ediel_sol  =         0.00000000
  ---------------------------------------------------
  free energy    TOTEN  =       -97.04463971 eV

  energy without entropy =      -97.04463971  energy(sigma->0) =      -97.04463971
  exchange ACFDT corr.  =         0.00000000  see jH, gK, PRB 81, 115126


--------------------------------------------------------------------------------------------------------




----------------------------------------- Iteration    1(  26)  ---------------------------------------


    POTLOK:  cpu time    0.0240: real time    0.0227
    SETDIJ:  cpu time    0.0200: real time    0.0198
     EDDAV:  cpu time    0.1840: real time    0.1862
       DOS:  cpu time    0.0000: real time    0.0001
    CHARGE:  cpu time    0.0080: real time    0.0092
    MIXING:  cpu time    0.0000: real time    0.0002
    --------------------------------------------
      LOOP:  cpu time    0.2360: real time    0.2396

 eigenvalue-minimisations  :   512
 total energy-change (2. order) : 0.8185452E-11  ( 0.2267520E-11)
 number of electron      62.0000000 magnetization       2.0000001
 augmentation part        1.4730530 magnetization       0.1655912

 Free energy of the ion-electron system (eV)
  ---------------------------------------------------
  alpha Z        PSCENC =        40.83557654
  Ewald energy   TEWEN  =     -2543.40949471
  -Hartree energ DENC   =      -332.24881916
  -exchange      EXHF   =         0.00000000
  -V(xc)+E(xc)   XCENC  =       135.17278926
  PAW double counting   =      5192.65382479    -5116.17353528
  entropy T*S    EENTRO =         0.00000000
  eigenvalues    EBANDS =       201.40874991
  atomic energy  EATOM  =      2324.71626894
  Solvation  Ediel_sol  =         0.00000000
  ---------------------------------------------------
  free energy    TOTEN  =       -97.04463971 eV

  energy without entropy =      -97.04463971  energy(sigma->0) =      -97.04463971
  exchange ACFDT corr.  =         0.00000000  see jH, gK, PRB 81, 115126


--------------------------------------------------------------------------------------------------------




----------------------------------------- Iteration    1(  27)  ---------------------------------------


    POTLOK:  cpu time    0.0240: real time    0.0229
    SETDIJ:  cpu time    0.0200: real time    0.0198
     EDDAV:  cpu time    0.1840: real time    0.1854
       DOS:  cpu time    0.0000: real time    0.0001
    CHARGE:  cpu time    0.0120: real time    0.0093
    MIXING:  cpu time    0.0000: real time    0.0002
    --------------------------------------------
      LOOP:  cpu time    0.2400: real time    0.2390

 eigenvalue-minimisations  :   512
 total energy-change (2. order) : 0.4547474E-11  ( 0.3364461E-12)
 number of electron      62.0000000 magnetization       2.0000001
 augmentation part        1.4730530 magnetization       0.1655912

 Free energy of the ion-electron system (eV)
  ---------------------------------------------------
  alpha Z        PSCENC =        40.83557654
  Ewald energy   TEWEN  =     -2543.40949471
  -Hartree energ DENC   =      -332.24881944
  -exchange      EXHF   =         0.00000000
  -V(xc)+E(xc)   XCENC  =       135.17278928
  PAW double counting   =      5192.65383352    -5116.17354401
  entropy T*S    EENTRO =         0.00000000
  eigenvalues    EBANDS =       201.40875016
  atomic energy  EATOM  =      2324.71626894
  Solvation  Ediel_sol  =         0.00000000
  ---------------------------------------------------
  free energy    TOTEN  =       -97.04463971 eV

  energy without entropy =      -97.04463971  energy(sigma->0) =      -97.04463971
  exchange ACFDT corr.  =         0.00000000  see jH, gK, PRB 81, 115126


--------------------------------------------------------------------------------------------------------




----------------------------------------- Iteration    1(  28)  ---------------------------------------


    POTLOK:  cpu time    0.0200: real time    0.0231
    SETDIJ:  cpu time    0.0200: real time    0.0198
     EDDAV:  cpu time    0.1920: real time    0.1890
       DOS:  cpu time    0.0000: real time    0.0001
    CHARGE:  cpu time    0.0080: real time    0.0092
    MIXING:  cpu time    0.0000: real time    0.0002
    --------------------------------------------
      LOOP:  cpu time    0.2400: real time    0.2427

 eigenvalue-minimisations  :   512
 total energy-change (2. order) : 0.1818989E-11  ( 0.1321547E-11)
 number of electron      62.0000000 magnetization       2.0000001
 augmentation part        1.4730530 magnetization       0.1655912

 Free energy of the ion-electron system (eV)
  ---------------------------------------------------
  alpha Z        PSCENC =        40.83557654
  Ewald energy   TEWEN  =     -2543.40949471
  -Hartree energ DENC   =      -332.24881962
  -exchange      EXHF   =         0.00000000
  -V(xc)+E(xc)   XCENC  =       135.17278929
  PAW double counting   =      5192.65383926    -5116.17354974
  entropy T*S    EENTRO =         0.00000000
  eigenvalues    EBANDS =       201.40875033
  atomic energy  EATOM  =      2324.71626894
  Solvation  Ediel_sol  =         0.00000000
  ---------------------------------------------------
  free energy    TOTEN  =       -97.04463971 eV

  energy without entropy =      -97.04463971  energy(sigma->0) =      -97.04463971
  exchange ACFDT corr.  =         0.00000000  see jH, gK, PRB 81, 115126


--------------------------------------------------------------------------------------------------------




----------------------------------------- Iteration    1(  29)  ---------------------------------------


    POTLOK:  cpu time    0.0240: real time    0.0227
    SETDIJ:  cpu time    0.0200: real time    0.0198
     EDDAV:  cpu time    0.1840: real time    0.1871
       DOS:  cpu time    0.0000: real time    0.0002
    CHARGE:  cpu time    0.0120: real time    0.0092
    MIXING:  cpu time    0.0000: real time    0.0002
    --------------------------------------------
      LOOP:  cpu time    0.2400: real time    0.2405

 eigenvalue-minimisations  :   512
 total energy-change (2. order) : 0.5456968E-11  (-0.2293582E-11)
 number of electron      62.0000000 magnetization       2.0000001
 augmentation part        1.4730530 magnetization       0.1655912

 Free energy of the ion-electron system (eV)
  ---------------------------------------------------
  alpha Z        PSCENC =        40.83557654
  Ewald energy   TEWEN  =     -2543.40949471
  -Hartree energ DENC   =      -332.24881974
  -exchange      EXHF   =         0.00000000
  -V(xc)+E(xc)   XCENC  =       135.17278930
  PAW double counting   =      5192.65384281    -5116.17355328
  entropy T*S    EENTRO =         0.00000000
  eigenvalues    EBANDS =       201.40875044
  atomic energy  EATOM  =      2324.71626894
  Solvation  Ediel_sol  =         0.00000000
[...]
     19       5.7805      1.00000
     20       5.7805      1.00000
     21       6.0154      1.00000
     22       7.9411      1.00000
     23       7.9411      1.00000
     24       8.5970      1.00000
     25       8.5970      1.00000
     26       9.0350      1.00000
     27      10.1275      1.00000
     28      10.2197      1.00000
     29      10.2197      1.00000
     30      13.1746      1.00000
     31      14.6203      1.00000
     32      14.6203      1.00000
     33      15.5598      0.00000
     34      16.2230      0.00000
     35      16.2230      0.00000
     36      16.7429      0.00000
     37      16.7429      0.00000
     38      17.1577      0.00000
     39      17.9748      0.00000
     40      17.9748      0.00000
     41      17.9816      0.00000
     42      19.2742      0.00000
     43      19.6426      0.00000
     44      19.6426      0.00000
     45      19.7646      0.00000
     46      20.6265      0.00000
     47      20.6265      0.00000
     48      21.7021      0.00000
     49      21.7021      0.00000
     50      22.8889      0.00000
     51      24.8236      0.00000
     52      24.8236      0.00000
     53      25.1383      0.00000
     54      25.7857      0.00000
     55      27.3937      0.00000
     56      27.3937      0.00000
     57      27.6664      0.00000
     58      28.3739      0.00000
     59      28.6711      0.00000
     60      28.6711      0.00000
     61      28.6973      0.00000
     62      31.3722      0.00000
     63      31.3722      0.00000
     64      31.4401      0.00000

 spin component 2

 k-point     1 :       0.0000    0.0000    0.0000
  band No.  band energies     occupation 
      1      -9.9702      1.00000
      2      -5.7014      1.00000
      3      -4.0548      1.00000
      4      -4.0548      1.00000
      5      -3.8326      1.00000
      6      -1.9906      1.00000
      7      -1.9906      1.00000
      8      -1.9791      1.00000
      9      -1.8438      1.00000
     10      -1.3200      1.00000
     11      -1.3200      1.00000
     12      -1.2240      1.00000
     13       0.4014      1.00000
     14       0.4014      1.00000
     15       5.0960      1.00000
     16       5.0960      1.00000
     17       5.4824      1.00000
     18       5.5948      1.00000
     19       5.9448      1.00000
     20       5.9448      1.00000
     21       6.8427      1.00000
     22       8.0829      1.00000
     23       8.0829      1.00000
     24       8.6969      1.00000
     25       8.6969      1.00000
     26       9.2334      1.00000
     27      10.2866      1.00000
     28      10.3912      1.00000
     29      10.3912      1.00000
     30      13.5864      1.00000
     31      15.6323      0.00000
     32      16.1001      0.00000
     33      16.1001      0.00000
     34      16.3748      0.00000
     35      16.3748      0.00000
     36      16.8161      0.00000
     37      16.8161      0.00000
     38      17.3570      0.00000
     39      18.0265      0.00000
     40      18.2421      0.00000
     41      18.2421      0.00000
     42      19.3966      0.00000
     43      19.7496      0.00000
     44      19.7496      0.00000
     45      19.9004      0.00000
     46      21.0378      0.00000
     47      21.0378      0.00000
     48      21.8868      0.00000
     49      21.8868      0.00000
     50      23.0586      0.00000
     51      25.0913      0.00000
     52      25.0913      0.00000
     53      25.3759      0.00000
     54      26.0845      0.00000
     55      27.4738      0.00000
     56      27.4738      0.00000
     57      27.7510      0.00000
     58      28.5727      0.00000
     59      28.8705      0.00000
     60      28.8705      0.00000
     61      28.9267      0.00000
     62      31.5484      0.00000
     63      31.7839      0.00000
     64      31.7839      0.00000


--------------------------------------------------------------------------------------------------------


 soft charge-density along one line, spin component           1
         0         1         2         3         4         5         6         7         8         9
 total charge-density along one line
 
 soft charge-density along one line, spin component           2
         0         1         2         3         4         5         6         7         8         9
 total charge-density along one line
 
 pseudopotential strength for first ion, spin component:           1
 18.431  24.360  50.687   0.001   0.001   0.001   0.005   0.005
 24.360  32.197  66.486   0.001   0.001   0.001   0.006   0.006
 50.687  66.486  21.200   0.004   0.004   0.004  -0.001  -0.001
  0.001   0.001   0.004   0.269   0.001   0.001  -4.551  -0.003
  0.001   0.001   0.004   0.001   0.269   0.001  -0.003  -4.551
  0.001   0.001   0.004   0.001   0.001   0.269  -0.003  -0.003
  0.005   0.006  -0.001  -4.551  -0.003  -0.003  50.139   0.006
  0.005   0.006  -0.001  -0.003  -4.551  -0.003   0.006  50.139
  0.005   0.006  -0.001  -0.003  -0.003  -4.551   0.006   0.006
 -0.000  -0.000  -0.002  -0.000  -0.000  -0.000   0.003   0.015
 -0.000  -0.000  -0.002  -0.000  -0.000  -0.000   0.003   0.003
  0.000   0.000   0.000   0.000  -0.000   0.000  -0.002   0.004
 -0.000  -0.000  -0.002  -0.000  -0.000  -0.000   0.015   0.003
 -0.000  -0.000  -0.000   0.000   0.000  -0.000  -0.003  -0.000
 -0.001  -0.001   0.002   0.005   0.022   0.005  -0.008  -0.023
 -0.001  -0.001   0.002   0.005   0.005   0.022  -0.008  -0.008
 -0.000  -0.000  -0.000  -0.003   0.005  -0.003   0.004  -0.009
 -0.001  -0.001   0.002   0.022   0.005   0.005  -0.023  -0.008
 -0.000  -0.000   0.000  -0.005  -0.000   0.005   0.008   0.000
 pseudopotential strength for first ion, spin component:           2
 18.416  24.340  50.628   0.001   0.001   0.001   0.004   0.004
 24.340  32.170  66.407   0.001   0.001   0.001   0.005   0.005
 50.628  66.407  20.974   0.004   0.004   0.004  -0.001  -0.001
  0.001   0.001   0.004   0.273  -0.002  -0.002  -4.577   0.008
  0.001   0.001   0.004  -0.002   0.273  -0.002   0.008  -4.577
  0.001   0.001   0.004  -0.002  -0.002   0.273   0.008   0.008
  0.004   0.005  -0.001  -4.577   0.008   0.008  50.181  -0.010
  0.004   0.005  -0.001   0.008  -4.577   0.008  -0.010  50.181
  0.004   0.005  -0.001   0.008   0.008  -4.577  -0.010  -0.010
  0.001   0.002   0.003   0.000  -0.000   0.000   0.003   0.016
  0.001   0.002   0.003   0.000   0.000  -0.000   0.003   0.003
 -0.000  -0.000  -0.000  -0.000   0.000  -0.000  -0.002   0.003
  0.001   0.002   0.003  -0.000   0.000   0.000   0.016   0.003
  0.000   0.000   0.000  -0.000  -0.000   0.000  -0.003   0.000
  0.006   0.008  -0.008   0.004   0.024   0.004  -0.007  -0.027
  0.006   0.008  -0.008   0.004   0.004   0.024  -0.007  -0.007
 -0.000  -0.000   0.000  -0.002   0.005  -0.002   0.004  -0.008
  0.006   0.008  -0.008   0.024   0.004   0.004  -0.027  -0.007
  0.000   0.000  -0.000  -0.004   0.000   0.004   0.007  -0.000
 total augmentation occupancy for first ion, spin component:           1
  4.774  -1.826  -0.006   0.015   0.015   0.015   0.002   0.002   0.002   0.007   0.007  -0.000   0.007  -0.000   0.000   0.000
 -1.826   0.744   0.002  -0.013  -0.013  -0.013  -0.001  -0.001  -0.001  -0.001  -0.001   0.000  -0.001   0.000  -0.000  -0.000
 -0.006   0.002   0.000  -0.000  -0.000  -0.000  -0.000  -0.000  -0.000  -0.000  -0.000  -0.000  -0.000  -0.000  -0.000  -0.000
  0.015  -0.013  -0.000   1.335   0.012   0.012   0.050   0.001   0.001   0.007   0.007  -0.002   0.176  -0.003   0.000   0.000
  0.015  -0.013  -0.000   0.012   1.335   0.012   0.001   0.050   0.001   0.176   0.007   0.004   0.007  -0.000   0.011   0.000
  0.015  -0.013  -0.000   0.012   0.012   1.335   0.001   0.001   0.050   0.007   0.176  -0.002   0.007   0.003   0.000   0.011
  0.002  -0.001  -0.000   0.050   0.001   0.001   0.002   0.000   0.000   0.000   0.000  -0.000   0.006  -0.000   0.000   0.000
  0.002  -0.001  -0.000   0.001   0.050   0.001   0.000   0.002   0.000   0.006   0.000   0.000   0.000   0.000   0.000   0.000
  0.002  -0.001  -0.000   0.001   0.001   0.050   0.000   0.000   0.002   0.000   0.006  -0.000   0.000   0.000   0.000   0.000
  0.007  -0.001  -0.000   0.007   0.176   0.007   0.000   0.006   0.000   0.031   0.002  -0.000   0.002   0.000   0.002   0.000
  0.007  -0.001  -0.000   0.007   0.007   0.176   0.000   0.000   0.006   0.002   0.031   0.000   0.002  -0.000   0.000   0.002
 -0.000   0.000  -0.000  -0.002   0.004  -0.002  -0.000   0.000  -0.000  -0.000   0.000   0.007   0.000   0.000   0.000  -0.000
  0.007  -0.001  -0.000   0.176   0.007   0.007   0.006   0.000   0.000   0.002   0.002   0.000   0.031   0.000   0.000   0.000
 -0.000   0.000  -0.000  -0.003  -0.000   0.003  -0.000   0.000   0.000   0.000  -0.000   0.000   0.000   0.007  -0.000   0.000
  0.000  -0.000  -0.000   0.000   0.011   0.000   0.000   0.000   0.000   0.002   0.000   0.000   0.000  -0.000   0.000   0.000
  0.000  -0.000  -0.000   0.000   0.000   0.011   0.000   0.000   0.000   0.000   0.002  -0.000   0.000   0.000   0.000   0.000
 -0.000   0.000  -0.000  -0.000   0.000  -0.000  -0.000   0.000  -0.000  -0.000   0.000   0.001   0.000   0.000  -0.000   0.000
  0.000  -0.000  -0.000   0.011   0.000   0.000   0.000   0.000   0.000   0.000   0.000  -0.000   0.002  -0.000   0.000   0.000
 -0.000   0.000  -0.000  -0.000  -0.000   0.000  -0.000   0.000   0.000  -0.000  -0.000   0.000   0.000   0.001  -0.000  -0.000
 total augmentation occupancy for first ion, spin component:           2
 -0.001   0.006  -0.000   0.001   0.001   0.001   0.000   0.000   0.000  -0.001  -0.001  -0.000  -0.001  -0.000   0.000   0.000
  0.006  -0.006   0.000  -0.001  -0.001  -0.001  -0.000  -0.000  -0.000  -0.000  -0.000   0.000  -0.000   0.000  -0.000  -0.000
 -0.000   0.000   0.000  -0.000  -0.000  -0.000  -0.000  -0.000  -0.000   0.000   0.000  -0.000   0.000  -0.000  -0.000  -0.000
  0.001  -0.001  -0.000   0.036  -0.016  -0.016  -0.000   0.000   0.000   0.001   0.001  -0.001  -0.002  -0.002   0.000   0.000
  0.001  -0.001  -0.000  -0.016   0.036  -0.016   0.000  -0.000   0.000  -0.002   0.001   0.002   0.001  -0.000  -0.000   0.000
  0.001  -0.001  -0.000  -0.016  -0.016   0.036   0.000   0.000  -0.000   0.001  -0.002  -0.001   0.001   0.002   0.000  -0.000
  0.000  -0.000  -0.000  -0.000   0.000   0.000  -0.000   0.000   0.000   0.000   0.000  -0.000  -0.000  -0.000   0.000   0.000
  0.000  -0.000  -0.000   0.000  -0.000   0.000   0.000  -0.000   0.000  -0.000   0.000   0.000   0.000  -0.000  -0.000   0.000
  0.000  -0.000  -0.000   0.000   0.000  -0.000   0.000   0.000  -0.000   0.000  -0.000  -0.000   0.000   0.000   0.000  -0.000
 -0.001  -0.000   0.000   0.001  -0.002   0.001   0.000  -0.000   0.000  -0.001   0.000  -0.000   0.000  -0.000  -0.000   0.000
 -0.001  -0.000   0.000   0.001   0.001  -0.002   0.000   0.000  -0.000   0.000  -0.001   0.000   0.000  -0.000   0.000  -0.000
 -0.000   0.000  -0.000  -0.001   0.002  -0.001  -0.000   0.000  -0.000  -0.000   0.000  -0.000   0.000  -0.000  -0.000   0.000
 -0.001  -0.000   0.000  -0.002   0.001   0.001  -0.000   0.000   0.000   0.000   0.000   0.000  -0.001   0.000   0.000   0.000
 -0.000   0.000  -0.000  -0.002  -0.000   0.002  -0.000  -0.000   0.000  -0.000  -0.000  -0.000   0.000  -0.000  -0.000  -0.000
  0.000  -0.000  -0.000   0.000  -0.000   0.000   0.000  -0.000   0.000  -0.000   0.000  -0.000   0.000  -0.000  -0.000   0.000
  0.000  -0.000  -0.000   0.000   0.000  -0.000   0.000   0.000  -0.000   0.000  -0.000   0.000   0.000  -0.000   0.000  -0.000
 -0.000   0.000  -0.000  -0.000   0.000  -0.000   0.000  -0.000   0.000  -0.000   0.000  -0.000   0.000   0.000  -0.000   0.000
  0.000  -0.000  -0.000  -0.000   0.000   0.000  -0.000   0.000   0.000   0.000   0.000   0.000  -0.000   0.000   0.000   0.000
 -0.000   0.000  -0.000  -0.000  -0.000   0.000   0.000  -0.000  -0.000  -0.000  -0.000   0.000   0.000  -0.000  -0.000  -0.000


------------------------ aborting loop because EDIFF is reached ----------------------------------------


    CHARGE:  cpu time    0.0080: real time    0.0088
    FORLOC:  cpu time    0.0000: real time    0.0009
    FORHF :  cpu time    0.0000: real time    0.0000
    FORNL :  cpu time    0.0360: real time    0.0379
    FORCOR:  cpu time    0.0400: real time    0.0387
    FORHAR:  cpu time    0.0040: real time    0.0027
    MIXING:  cpu time    0.0000: real time    0.0002
    OFIELD:  cpu time    0.0000: real time    0.0000

 VOLUME and BASIS-vectors are now :
 -----------------------------------------------------------------------------
  energy-cutoff  :      900.00
  volume of cell :       90.78
      direct lattice vectors                 reciprocal lattice vectors
     3.567100903  3.567100903  0.000000000     0.140169850  0.140169850 -0.140169850
     0.000000000  3.567100903  3.567100903    -0.140169850  0.140169850  0.140169850
     3.567100903  0.000000000  3.567100903     0.140169850 -0.140169850  0.140169850

  length of vectors
     5.044642476  5.044642476  5.044642476     0.242781303  0.242781303  0.242781303


 FORCES acting on ions
    electron-ion (+dipol)            ewald-force                    non-local-force                 convergence-correction
 -----------------------------------------------------------------------------------------------
   0.124E+02 0.124E+02 0.124E+02   -.129E+02 -.129E+02 -.129E+02   0.488E+00 0.488E+00 0.488E+00   0.122E-07 0.122E-07 0.123E-07
   -.654E+00 -.654E+00 -.654E+00   0.171E+00 0.171E+00 0.171E+00   0.483E+00 0.483E+00 0.483E+00   -.683E-08 -.681E-08 -.673E-08
   -.121E+02 0.163E+02 -.121E+02   0.123E+02 -.155E+02 0.123E+02   -.189E+00 -.868E+00 -.189E+00   -.118E-08 -.147E-07 -.112E-08
   0.101E+01 0.476E+02 0.101E+01   -.455E+00 -.414E+02 -.455E+00   -.555E+00 -.618E+01 -.555E+00   -.301E-08 0.591E-08 -.278E-08
   0.163E+02 -.121E+02 -.121E+02   -.155E+02 0.123E+02 0.123E+02   -.868E+00 -.189E+00 -.189E+00   -.147E-07 -.116E-08 -.114E-08
   0.476E+02 0.101E+01 0.101E+01   -.414E+02 -.455E+00 -.455E+00   -.618E+01 -.555E+00 -.555E+00   0.609E-08 -.285E-08 -.296E-08
   0.603E+02 0.603E+02 -.578E+02   -.628E+02 -.628E+02 0.613E+02   0.249E+01 0.249E+01 -.343E+01   0.540E-08 0.545E-08 -.131E-07
   0.701E+01 0.701E+01 -.555E+02   -.129E+02 -.129E+02 0.503E+02   0.585E+01 0.585E+01 0.519E+01   0.394E-08 0.393E-08 0.686E-08
   -.121E+02 -.121E+02 0.163E+02   0.123E+02 0.123E+02 -.155E+02   -.189E+00 -.189E+00 -.868E+00   -.114E-08 -.110E-08 -.147E-07
   0.101E+01 0.101E+01 0.476E+02   -.455E+00 -.455E+00 -.414E+02   -.555E+00 -.555E+00 -.618E+01   -.303E-08 -.269E-08 0.601E-08
   -.578E+02 0.603E+02 0.603E+02   0.613E+02 -.628E+02 -.628E+02   -.343E+01 0.249E+01 0.249E+01   -.132E-07 0.552E-08 0.544E-08
   -.555E+02 0.701E+01 0.701E+01   0.503E+02 -.129E+02 -.129E+02   0.519E+01 0.585E+01 0.585E+01   0.693E-08 0.410E-08 0.402E-08
   0.603E+02 -.578E+02 0.603E+02   -.628E+02 0.613E+02 -.628E+02   0.249E+01 -.343E+01 0.249E+01   0.542E-08 -.131E-07 0.540E-08
   0.701E+01 -.555E+02 0.701E+01   -.129E+02 0.503E+02 -.129E+02   0.585E+01 0.519E+01 0.585E+01   0.393E-08 0.675E-08 0.383E-08
   -.676E+02 -.676E+02 -.676E+02   0.856E+02 0.856E+02 0.856E+02   -.180E+02 -.180E+02 -.180E+02   0.266E-07 0.265E-07 0.265E-07
 -----------------------------------------------------------------------------------------------
   0.714E+01 0.714E+01 0.714E+01   0.284E-13 0.426E-13 0.142E-13   -.714E+01 -.714E+01 -.714E+01   0.274E-07 0.279E-07 0.277E-07
 
 
 POSITION                                       TOTAL-FORCE (eV/Angst)
 -----------------------------------------------------------------------------------
      7.13234      7.13234      7.13234        -0.000000     -0.000000     -0.000000
      0.87694      0.87694      0.87694        -0.000001     -0.000001     -0.000001
      5.33005      7.12633      5.33005         0.000000      0.000000      0.000000
      2.66724      0.90861      2.66724         0.000000      0.000001      0.000000
      7.12633      5.33005      5.33005         0.000000      0.000000      0.000000
      0.90861      2.66724      2.66724         0.000001      0.000000      0.000000
      1.89119      1.89119      3.46181         0.000000      0.000000      0.000001
      2.68326      2.68326      4.39929        -0.000001     -0.000001     -0.000001
      5.33005      5.33005      7.12633         0.000000      0.000000      0.000000
      2.66724      2.66724      0.90861         0.000000      0.000000      0.000001
      3.46181      1.89119      1.89119         0.000001      0.000000      0.000000
      4.39929      2.68326      2.68326        -0.000001     -0.000001     -0.000001
      1.89119      3.46181      1.89119         0.000000      0.000001      0.000000
      2.68326      4.39929      2.68326        -0.000001     -0.000001     -0.000001
      3.56592      3.56592      3.56592         0.000000      0.000000      0.000000
 -----------------------------------------------------------------------------------
    total drift:                               -0.000107     -0.000107     -0.000107


--------------------------------------------------------------------------------------------------------



  FREE ENERGIE OF THE ION-ELECTRON SYSTEM (eV)
  ---------------------------------------------------
  free  energy   TOTEN  =       -97.04502205 eV

  energy  without entropy=      -97.04502205  energy(sigma->0) =      -97.04502205
 
 d Force = 0.1139181E-13[ 0.198E-15, 0.226E-13]  d Energy =-0.6366463E-11 0.638E-11
 d Force =-0.6302198E-06[-0.630E-06,-0.630E-06]  d Ewald  =-0.6302189E-06-0.909E-12


--------------------------------------------------------------------------------------------------------


    POTLOK:  cpu time    0.0440: real time    0.0430

 Spin-spin contribution to zero-field splitting tensor (MHz)
 ---------------------------------------------------------------
      D_xx      D_yy      D_zz      D_xy      D_xz      D_yz
 ---------------------------------------------------------------
      0.000     0.000     0.000  3385.840  3385.840  3385.840
 ---------------------------------------------------------------

 after diagonalization
 ---------------------------------------------
     D_diag          eigenvector (x,y,z)
 ---------------------------------------------
  -3385.840       0.707    -0.707     0.000
  -3385.840       0.408     0.408    -0.816
   6771.680       0.577     0.577     0.577
---------------------------------------------



--------------------------------------------------------------------------------------------------------




--------------------------------------------------------------------------------------------------------


  
 reached required accuracy - stopping structural energy minimisation
 writing wavefunctions
     LOOP+:  cpu time    2.2601: real time    2.3016
    4ORBIT:  cpu time    0.0000: real time    0.0000

 total amount of memory used by VASP on root node    44566. kBytes
========================================================================

   base      :      30000. kBytes
   nonl-proj :       1667. kBytes
   fftplans  :        685. kBytes
   grid      :       6215. kBytes
   one-center:        348. kBytes
   HF        :        193. kBytes
   nonlr-proj:       5363. kBytes
   wavefun   :         95. kBytes
 
  
  
 General timing and accounting informations for this job:
 ========================================================
  
                  Total CPU time used (sec):      263.748
                            User time (sec):      262.432
                          System time (sec):        1.316
                         Elapsed time (sec):      268.620
  
                   Maximum memory used (kb):       99572.
                   Average memory used (kb):           0.
  
                          Minor page faults:       193865
                          Major page faults:            0
                 Voluntary context switches:         9146
